
     Program PWSCF v.6.4.1 starts on 20Nov2023 at  9:45:13 

     This program is part of the open-source Quantum ESPRESSO suite
     for quantum simulation of materials; please cite
         "P. Giannozzi et al., J. Phys.:Condens. Matter 21 395502 (2009);
         "P. Giannozzi et al., J. Phys.:Condens. Matter 29 465901 (2017);
          URL http://www.quantum-espresso.org", 
     in publications or presentations arising from this work. More details at
     http://www.quantum-espresso.org/quote

     Parallel version (MPI), running on    48 processors

     MPI processes distributed on     1 nodes
     K-points division:     npool     =       6
     R & G space division:  proc/nbgrp/npool/nimage =       8
     Waiting for input...
     Reading input from standard input

     Current dimensions of program PWSCF are:
     Max number of different atomic species (ntypx) = 40
     Max number of k-points (npk) =  40000
     Max angular momentum in pseudopotentials (lmaxx) =  3

     --------------------------------------------
     Parameters for DFT-D3 Dispersion Correction:
     --------------------------------------------
       Reference C6 values for interpolation: 

         atom   Coordination number   C6
         S          0.000           268.01
         S          0.995           261.99
         S          1.990           251.62
         Mo         0.000          1691.79
         Mo         1.942          1004.01
         Mo        11.056           674.22

       Values used:

         atom   Coordination number  R0_AB[au]  C6      C8
         Mo        10.439            3.547    674.22  77634.20
         Mo        10.439            3.547    674.22  77634.20
         S          3.974            3.128    251.62  12327.25
         S          3.974            3.128    251.62  12327.25
         S          3.974            3.128    251.62  12327.25
         S          3.974            3.128    251.62  12327.25

         Molecular C6 ( Ry / a.u.^6 ) =     13294.63


     Subspace diagonalization in iterative solution of the eigenvalue problem:
     one sub-group per band group will be used
     scalapack distributed-memory algorithm (size of sub-group:  2*  2 procs)

     Message from routine setup:
     DEPRECATED: symmetry with ibrav=0, use correct ibrav instead
 
     Parallelization info
     --------------------
     sticks:   dense  smooth     PW     G-vecs:    dense   smooth      PW
     Min         119      59     18                11619     4099     680
     Max         120      60     19                11638     4116     687
     Sum         955     475    151                93019    32845    5463
 


     bravais-lattice index     =            0
     lattice parameter (alat)  =       5.9035  a.u.
     unit-cell volume          =     688.5960 (a.u.)^3
     number of atoms/cell      =            6
     number of atomic types    =            2
     number of electrons       =        52.00
     number of Kohn-Sham states=           31
     kinetic-energy cutoff     =      50.0000  Ry
     charge density cutoff     =     400.0000  Ry
     convergence threshold     =      1.0E-06
     mixing beta               =       0.5000
     number of iterations used =            8  plain     mixing
     Exchange-correlation      =  SLA  PW   PBX  PBC ( 1  4  3  4 0 0)
     nstep                     =          200


     celldm(1)=   5.903504  celldm(2)=   0.000000  celldm(3)=   0.000000
     celldm(4)=   0.000000  celldm(5)=   0.000000  celldm(6)=   0.000000

     crystal axes: (cart. coord. in units of alat)
               a(1) = (   1.000000   0.000000   0.000000 )  
               a(2) = (  -0.500000   0.866025   0.000000 )  
               a(3) = (   0.000000   0.000000   3.864597 )  

     reciprocal axes: (cart. coord. in units 2 pi/alat)
               b(1) = (  1.000000  0.577350  0.000000 )  
               b(2) = (  0.000000  1.154701  0.000000 )  
               b(3) = (  0.000000  0.000000  0.258759 )  


     PseudoPot. # 1 for Mo read from file:
     ./Mo_ONCV_PBE-1.0.oncvpsp.upf
     MD5 check sum: 1b5d28e075c9ccadda658a603575cd1f
     Pseudo is Norm-conserving, Zval = 14.0
     Generated using ONCVPSP code by D. R. Hamann
     Using radial grid of 1526 points,  6 beta functions with: 
                l(1) =   0
                l(2) =   0
                l(3) =   1
                l(4) =   1
                l(5) =   2
                l(6) =   2

     PseudoPot. # 2 for S  read from file:
     ./s_pbe_v1.4.uspp.F.UPF
     MD5 check sum: 88d86576ff6df21479756cfb9bdac1df
     Pseudo is Ultrasoft + core correction, Zval =  6.0
     Generated by new atomic code, or converted to UPF format
     Using radial grid of  907 points,  6 beta functions with: 
                l(1) =   0
                l(2) =   0
                l(3) =   1
                l(4) =   1
                l(5) =   2
                l(6) =   2
     Q(r) pseudized with  8 coefficients,  rinner =    1.300   1.300   1.300
                                                       1.300   1.300

     atomic species   valence    mass     pseudopotential
        Mo            14.00    95.94000     Mo( 1.00)
        S              6.00    32.06000     S ( 1.00)

      8 Sym. Ops., with inversion, found ( 4 have fractional translation)


                                    s                        frac. trans.

      isym =  1     identity                                     

 cryst.   s( 1) = (     1          0          0      )
                  (     0          1          0      )
                  (     0          0          1      )

 cart.    s( 1) = (  1.0000000  0.0000000  0.0000000 )
                  (  0.0000000  1.0000000  0.0000000 )
                  (  0.0000000  0.0000000  1.0000000 )


      isym =  2     180 deg rotation - cart. axis [0,0,1]        

 cryst.   s( 2) = (    -1          0          0      )    f =( -0.0000000 )
                  (     0         -1          0      )       ( -0.0000000 )
                  (     0          0          1      )       (  0.5000000 )

 cart.    s( 2) = ( -1.0000000  0.0000000  0.0000000 )    f =( -0.0000000 )
                  (  0.0000000 -1.0000000  0.0000000 )       ( -0.0000000 )
                  (  0.0000000  0.0000000  1.0000000 )       (  1.9322983 )


      isym =  3     180 deg rotation - cryst. axis [1,-1,0]      

 cryst.   s( 3) = (     0         -1          0      )    f =( -0.0000000 )
                  (    -1          0          0      )       ( -0.0000000 )
                  (     0          0         -1      )       (  0.5000000 )

 cart.    s( 3) = (  0.5000000 -0.8660254  0.0000000 )    f =( -0.0000000 )
                  ( -0.8660254 -0.5000000  0.0000000 )       ( -0.0000000 )
                  (  0.0000000  0.0000000 -1.0000000 )       (  1.9322983 )


      isym =  4     180 deg rotation - cryst. axis [1,1,0]       

 cryst.   s( 4) = (     0          1          0      )
                  (     1          0          0      )
                  (     0          0         -1      )

 cart.    s( 4) = ( -0.5000000  0.8660254  0.0000000 )
                  (  0.8660254  0.5000000  0.0000000 )
                  (  0.0000000  0.0000000 -1.0000000 )


      isym =  5     inversion                                    

 cryst.   s( 5) = (    -1          0          0      )
                  (     0         -1          0      )
                  (     0          0         -1      )

 cart.    s( 5) = ( -1.0000000  0.0000000  0.0000000 )
                  (  0.0000000 -1.0000000  0.0000000 )
                  (  0.0000000  0.0000000 -1.0000000 )


      isym =  6     inv. 180 deg rotation - cart. axis [0,0,1]   

 cryst.   s( 6) = (     1          0          0      )    f =(  0.0000000 )
                  (     0          1          0      )       (  0.0000000 )
                  (     0          0         -1      )       (  0.5000000 )

 cart.    s( 6) = (  1.0000000  0.0000000  0.0000000 )    f =(  0.0000000 )
                  (  0.0000000  1.0000000  0.0000000 )       (  0.0000000 )
                  (  0.0000000  0.0000000 -1.0000000 )       (  1.9322983 )


      isym =  7     inv. 180 deg rotation - cryst. axis [1,-1,0] 

 cryst.   s( 7) = (     0          1          0      )    f =(  0.0000000 )
                  (     1          0          0      )       (  0.0000000 )
                  (     0          0          1      )       (  0.5000000 )

 cart.    s( 7) = ( -0.5000000  0.8660254  0.0000000 )    f =(  0.0000000 )
                  (  0.8660254  0.5000000  0.0000000 )       (  0.0000000 )
                  (  0.0000000  0.0000000  1.0000000 )       (  1.9322983 )


      isym =  8     inv. 180 deg rotation - cryst. axis [1,1,0]  

 cryst.   s( 8) = (     0         -1          0      )
                  (    -1          0          0      )
                  (     0          0          1      )

 cart.    s( 8) = (  0.5000000 -0.8660254  0.0000000 )
                  ( -0.8660254 -0.5000000  0.0000000 )
                  (  0.0000000  0.0000000  1.0000000 )


   Cartesian axes

     site n.     atom                  positions (alat units)
         1           Mo  tau(   1) = (   0.5000500   0.2886463   2.8984475  )
         2           Mo  tau(   2) = (  -0.0000500   0.5773791   0.9661492  )
         3           S   tau(   3) = (   0.5000500   0.2886463   0.4676162  )
         4           S   tau(   4) = (  -0.0000500   0.5773791   2.3999145  )
         5           S   tau(   5) = (  -0.0000500   0.5773791   3.3969805  )
         6           S   tau(   6) = (   0.5000500   0.2886463   1.4646821  )

   Crystallographic axes

     site n.     atom                  positions (cryst. coord.)
         1           Mo  tau(   1) = (  0.6667000  0.3333000  0.7500000  )
         2           Mo  tau(   2) = (  0.3333000  0.6667000  0.2500000  )
         3           S   tau(   3) = (  0.6667000  0.3333000  0.1210000  )
         4           S   tau(   4) = (  0.3333000  0.6667000  0.6210000  )
         5           S   tau(   5) = (  0.3333000  0.6667000  0.8790000  )
         6           S   tau(   6) = (  0.6667000  0.3333000  0.3790000  )

     number of k points=    62  gaussian smearing, width (Ry)=  0.0020
                       cart. coord. in units 2pi/alat
        k(    1) = (   0.0000000   0.0000000   0.0000000), wk =   0.0100000
        k(    2) = (   0.0000000   0.0000000  -0.1293796), wk =   0.0100000
        k(    3) = (   0.0000000   0.1154701   0.0000000), wk =   0.0400000
        k(    4) = (   0.0000000   0.1154701  -0.1293796), wk =   0.0400000
        k(    5) = (   0.0000000   0.2309401   0.0000000), wk =   0.0400000
        k(    6) = (   0.0000000   0.2309401  -0.1293796), wk =   0.0400000
        k(    7) = (   0.0000000   0.3464102   0.0000000), wk =   0.0400000
        k(    8) = (   0.0000000   0.3464102  -0.1293796), wk =   0.0400000
        k(    9) = (   0.0000000   0.4618802   0.0000000), wk =   0.0400000
        k(   10) = (   0.0000000   0.4618802  -0.1293796), wk =   0.0400000
        k(   11) = (   0.0000000  -0.5773503   0.0000000), wk =   0.0200000
        k(   12) = (   0.0000000  -0.5773503  -0.1293796), wk =   0.0200000
        k(   13) = (   0.1000000   0.1732051   0.0000000), wk =   0.0200000
        k(   14) = (   0.1000000   0.1732051  -0.1293796), wk =   0.0200000
        k(   15) = (   0.1000000   0.2886751   0.0000000), wk =   0.0400000
        k(   16) = (   0.1000000   0.2886751  -0.1293796), wk =   0.0400000
        k(   17) = (   0.1000000   0.4041452   0.0000000), wk =   0.0400000
        k(   18) = (   0.1000000   0.4041452  -0.1293796), wk =   0.0400000
        k(   19) = (   0.1000000   0.5196152   0.0000000), wk =   0.0400000
        k(   20) = (   0.1000000   0.5196152  -0.1293796), wk =   0.0400000
        k(   21) = (   0.2000000   0.3464102   0.0000000), wk =   0.0200000
        k(   22) = (   0.2000000   0.3464102  -0.1293796), wk =   0.0200000
        k(   23) = (   0.2000000   0.4618802   0.0000000), wk =   0.0400000
        k(   24) = (   0.2000000   0.4618802  -0.1293796), wk =   0.0400000
        k(   25) = (   0.2000000   0.5773503   0.0000000), wk =   0.0400000
        k(   26) = (   0.2000000   0.5773503  -0.1293796), wk =   0.0400000
        k(   27) = (   0.3000000   0.5196152   0.0000000), wk =   0.0200000
        k(   28) = (   0.3000000   0.5196152  -0.1293796), wk =   0.0200000
        k(   29) = (   0.1000000  -0.0577350   0.0000000), wk =   0.0200000
        k(   30) = (   0.1000000  -0.0577350   0.1293796), wk =   0.0200000
        k(   31) = (   0.2000000  -0.1154701   0.0000000), wk =   0.0200000
        k(   32) = (   0.2000000  -0.1154701   0.1293796), wk =   0.0200000
        k(   33) = (   0.3000000  -0.1732051   0.0000000), wk =   0.0200000
        k(   34) = (   0.3000000  -0.1732051   0.1293796), wk =   0.0200000
        k(   35) = (   0.4000000  -0.2309401   0.0000000), wk =   0.0200000
        k(   36) = (   0.4000000  -0.2309401   0.1293796), wk =   0.0200000
        k(   37) = (  -0.5000000   0.2886751   0.0000000), wk =   0.0100000
        k(   38) = (  -0.5000000   0.2886751   0.1293796), wk =   0.0100000
        k(   39) = (  -0.1000000   0.1732051   0.0000000), wk =   0.0400000
        k(   40) = (  -0.1000000   0.1732051   0.1293796), wk =   0.0400000
        k(   41) = (  -0.1000000   0.2886751   0.0000000), wk =   0.0400000
        k(   42) = (   0.3000000  -0.0577350   0.0000000), wk =   0.0400000
        k(   43) = (  -0.1000000   0.2886751   0.1293796), wk =   0.0400000
        k(   44) = (   0.3000000  -0.0577350   0.1293796), wk =   0.0400000
        k(   45) = (  -0.1000000   0.4041452   0.0000000), wk =   0.0400000
        k(   46) = (   0.4000000  -0.1154701   0.0000000), wk =   0.0400000
        k(   47) = (  -0.1000000   0.4041452   0.1293796), wk =   0.0400000
        k(   48) = (   0.4000000  -0.1154701   0.1293796), wk =   0.0400000
        k(   49) = (  -0.1000000   0.5196152   0.0000000), wk =   0.0400000
        k(   50) = (   0.5000000  -0.1732051   0.0000000), wk =   0.0400000
        k(   51) = (  -0.1000000   0.5196152   0.1293796), wk =   0.0400000
        k(   52) = (   0.5000000  -0.1732051   0.1293796), wk =   0.0400000
        k(   53) = (  -0.2000000   0.3464102   0.0000000), wk =   0.0400000
        k(   54) = (  -0.2000000   0.3464102   0.1293796), wk =   0.0400000
        k(   55) = (  -0.2000000   0.4618802   0.0000000), wk =   0.0400000
        k(   56) = (   0.5000000  -0.0577350   0.0000000), wk =   0.0400000
        k(   57) = (  -0.2000000   0.4618802   0.1293796), wk =   0.0400000
        k(   58) = (   0.5000000  -0.0577350   0.1293796), wk =   0.0400000
        k(   59) = (   0.6000000  -0.1154701   0.0000000), wk =   0.0200000
        k(   60) = (   0.6000000  -0.1154701   0.1293796), wk =   0.0200000
        k(   61) = (  -0.3000000   0.5196152   0.0000000), wk =   0.0400000
        k(   62) = (  -0.3000000   0.5196152   0.1293796), wk =   0.0400000

                       cryst. coord.
        k(    1) = (   0.0000000   0.0000000   0.0000000), wk =   0.0100000
        k(    2) = (   0.0000000   0.0000000  -0.5000000), wk =   0.0100000
        k(    3) = (   0.0000000   0.1000000   0.0000000), wk =   0.0400000
        k(    4) = (   0.0000000   0.1000000  -0.5000000), wk =   0.0400000
        k(    5) = (   0.0000000   0.2000000   0.0000000), wk =   0.0400000
        k(    6) = (   0.0000000   0.2000000  -0.5000000), wk =   0.0400000
        k(    7) = (   0.0000000   0.3000000   0.0000000), wk =   0.0400000
        k(    8) = (   0.0000000   0.3000000  -0.5000000), wk =   0.0400000
        k(    9) = (   0.0000000   0.4000000   0.0000000), wk =   0.0400000
        k(   10) = (   0.0000000   0.4000000  -0.5000000), wk =   0.0400000
        k(   11) = (   0.0000000  -0.5000000   0.0000000), wk =   0.0200000
        k(   12) = (   0.0000000  -0.5000000  -0.5000000), wk =   0.0200000
        k(   13) = (   0.1000000   0.1000000   0.0000000), wk =   0.0200000
        k(   14) = (   0.1000000   0.1000000  -0.5000000), wk =   0.0200000
        k(   15) = (   0.1000000   0.2000000   0.0000000), wk =   0.0400000
        k(   16) = (   0.1000000   0.2000000  -0.5000000), wk =   0.0400000
        k(   17) = (   0.1000000   0.3000000   0.0000000), wk =   0.0400000
        k(   18) = (   0.1000000   0.3000000  -0.5000000), wk =   0.0400000
        k(   19) = (   0.1000000   0.4000000   0.0000000), wk =   0.0400000
        k(   20) = (   0.1000000   0.4000000  -0.5000000), wk =   0.0400000
        k(   21) = (   0.2000000   0.2000000   0.0000000), wk =   0.0200000
        k(   22) = (   0.2000000   0.2000000  -0.5000000), wk =   0.0200000
        k(   23) = (   0.2000000   0.3000000   0.0000000), wk =   0.0400000
        k(   24) = (   0.2000000   0.3000000  -0.5000000), wk =   0.0400000
        k(   25) = (   0.2000000   0.4000000   0.0000000), wk =   0.0400000
        k(   26) = (   0.2000000   0.4000000  -0.5000000), wk =   0.0400000
        k(   27) = (   0.3000000   0.3000000   0.0000000), wk =   0.0200000
        k(   28) = (   0.3000000   0.3000000  -0.5000000), wk =   0.0200000
        k(   29) = (   0.1000000  -0.1000000   0.0000000), wk =   0.0200000
        k(   30) = (   0.1000000  -0.1000000   0.5000000), wk =   0.0200000
        k(   31) = (   0.2000000  -0.2000000   0.0000000), wk =   0.0200000
        k(   32) = (   0.2000000  -0.2000000   0.5000000), wk =   0.0200000
        k(   33) = (   0.3000000  -0.3000000   0.0000000), wk =   0.0200000
        k(   34) = (   0.3000000  -0.3000000   0.5000000), wk =   0.0200000
        k(   35) = (   0.4000000  -0.4000000   0.0000000), wk =   0.0200000
        k(   36) = (   0.4000000  -0.4000000   0.5000000), wk =   0.0200000
        k(   37) = (  -0.5000000   0.5000000   0.0000000), wk =   0.0100000
        k(   38) = (  -0.5000000   0.5000000   0.5000000), wk =   0.0100000
        k(   39) = (  -0.1000000   0.2000000   0.0000000), wk =   0.0400000
        k(   40) = (  -0.1000000   0.2000000   0.5000000), wk =   0.0400000
        k(   41) = (  -0.1000000   0.3000000   0.0000000), wk =   0.0400000
        k(   42) = (   0.3000000  -0.2000000   0.0000000), wk =   0.0400000
        k(   43) = (  -0.1000000   0.3000000   0.5000000), wk =   0.0400000
        k(   44) = (   0.3000000  -0.2000000   0.5000000), wk =   0.0400000
        k(   45) = (  -0.1000000   0.4000000   0.0000000), wk =   0.0400000
        k(   46) = (   0.4000000  -0.3000000   0.0000000), wk =   0.0400000
        k(   47) = (  -0.1000000   0.4000000   0.5000000), wk =   0.0400000
        k(   48) = (   0.4000000  -0.3000000   0.5000000), wk =   0.0400000
        k(   49) = (  -0.1000000   0.5000000   0.0000000), wk =   0.0400000
        k(   50) = (   0.5000000  -0.4000000   0.0000000), wk =   0.0400000
        k(   51) = (  -0.1000000   0.5000000   0.5000000), wk =   0.0400000
        k(   52) = (   0.5000000  -0.4000000   0.5000000), wk =   0.0400000
        k(   53) = (  -0.2000000   0.4000000   0.0000000), wk =   0.0400000
        k(   54) = (  -0.2000000   0.4000000   0.5000000), wk =   0.0400000
        k(   55) = (  -0.2000000   0.5000000   0.0000000), wk =   0.0400000
        k(   56) = (   0.5000000  -0.3000000   0.0000000), wk =   0.0400000
        k(   57) = (  -0.2000000   0.5000000   0.5000000), wk =   0.0400000
        k(   58) = (   0.5000000  -0.3000000   0.5000000), wk =   0.0400000
        k(   59) = (   0.6000000  -0.4000000   0.0000000), wk =   0.0200000
        k(   60) = (   0.6000000  -0.4000000   0.5000000), wk =   0.0200000
        k(   61) = (  -0.3000000   0.6000000   0.0000000), wk =   0.0400000
        k(   62) = (  -0.3000000   0.6000000   0.5000000), wk =   0.0400000

     Dense  grid:    93019 G-vectors     FFT dimensions: (  40,  40, 150)

     Smooth grid:    32845 G-vectors     FFT dimensions: (  27,  27, 108)

     Dynamical RAM for                 wfc:       0.24 MB

     Dynamical RAM for     wfc (w. buffer):       2.91 MB

     Dynamical RAM for           str. fact:       0.35 MB

     Dynamical RAM for           local pot:       0.00 MB

     Dynamical RAM for          nlocal pot:       0.85 MB

     Dynamical RAM for                qrad:       6.03 MB

     Dynamical RAM for          rho,v,vnew:       1.23 MB

     Dynamical RAM for               rhoin:       0.41 MB

     Dynamical RAM for            rho*nmix:       2.84 MB

     Dynamical RAM for           G-vectors:       0.70 MB

     Dynamical RAM for          h,s,v(r/c):       0.18 MB

     Dynamical RAM for          <psi|beta>:       0.05 MB

     Dynamical RAM for                 psi:       0.97 MB

     Dynamical RAM for                hpsi:       0.97 MB

     Dynamical RAM for                spsi:       0.97 MB

     Dynamical RAM for      wfcinit/wfcrot:       0.51 MB

     Dynamical RAM for           addusdens:       5.76 MB

     Dynamical RAM for          addusforce:       6.08 MB

     Dynamical RAM for         addusstress:       6.01 MB

     Estimated static dynamical RAM per process >      17.01 MB

     Estimated max dynamical RAM per process >      23.09 MB

     Estimated total dynamical RAM >       1.08 GB

     Initial potential from superposition of free atoms

     starting charge   51.99788, renormalised to   52.00000
     Starting wfcs are random

     total cpu time spent up to now is        5.1 secs

     Self-consistent Calculation

     iteration #  1     ecut=    50.00 Ry     beta= 0.50
     Davidson diagonalization with overlap
     ethr =  1.00E-02,  avg # of iterations =  8.8

     Threshold (ethr) on eigenvalues was too large:
     Diagonalizing with lowered threshold

     Davidson diagonalization with overlap
     ethr =  5.19E-04,  avg # of iterations =  1.8

     total cpu time spent up to now is        7.3 secs

     total energy              =    -371.08485211 Ry
     Harris-Foulkes estimate   =    -371.23624693 Ry
     estimated scf accuracy    <       0.26798775 Ry

     iteration #  2     ecut=    50.00 Ry     beta= 0.50
     Davidson diagonalization with overlap
     ethr =  5.15E-04,  avg # of iterations =  3.0

     total cpu time spent up to now is        7.7 secs

     total energy              =    -371.09417224 Ry
     Harris-Foulkes estimate   =    -371.21652531 Ry
     estimated scf accuracy    <       0.32164414 Ry

     iteration #  3     ecut=    50.00 Ry     beta= 0.50
     Davidson diagonalization with overlap
     ethr =  5.15E-04,  avg # of iterations =  3.2

     total cpu time spent up to now is        8.2 secs

     total energy              =    -371.15798561 Ry
     Harris-Foulkes estimate   =    -371.17615802 Ry
     estimated scf accuracy    <       0.06626654 Ry

     iteration #  4     ecut=    50.00 Ry     beta= 0.50
     Davidson diagonalization with overlap
     ethr =  1.27E-04,  avg # of iterations =  2.4

     total cpu time spent up to now is        8.6 secs

     total energy              =    -371.16665433 Ry
     Harris-Foulkes estimate   =    -371.16686823 Ry
     estimated scf accuracy    <       0.00173241 Ry

     iteration #  5     ecut=    50.00 Ry     beta= 0.50
     Davidson diagonalization with overlap
     ethr =  3.33E-06,  avg # of iterations =  5.3

     total cpu time spent up to now is        9.3 secs

     total energy              =    -371.16719131 Ry
     Harris-Foulkes estimate   =    -371.16768567 Ry
     estimated scf accuracy    <       0.00176146 Ry

     iteration #  6     ecut=    50.00 Ry     beta= 0.50
     Davidson diagonalization with overlap
     ethr =  3.33E-06,  avg # of iterations =  2.1

     total cpu time spent up to now is        9.7 secs

     total energy              =    -371.16740404 Ry
     Harris-Foulkes estimate   =    -371.16740525 Ry
     estimated scf accuracy    <       0.00000966 Ry

     iteration #  7     ecut=    50.00 Ry     beta= 0.50
     Davidson diagonalization with overlap
     ethr =  1.86E-08,  avg # of iterations =  5.0

     total cpu time spent up to now is       10.4 secs

     total energy              =    -371.16741486 Ry
     Harris-Foulkes estimate   =    -371.16741573 Ry
     estimated scf accuracy    <       0.00000503 Ry

     iteration #  8     ecut=    50.00 Ry     beta= 0.50
     Davidson diagonalization with overlap
     ethr =  9.67E-09,  avg # of iterations =  1.0

     total cpu time spent up to now is       10.7 secs

     total energy              =    -371.16741470 Ry
     Harris-Foulkes estimate   =    -371.16741511 Ry
     estimated scf accuracy    <       0.00000111 Ry

     iteration #  9     ecut=    50.00 Ry     beta= 0.50
     Davidson diagonalization with overlap
     ethr =  2.14E-09,  avg # of iterations =  3.2

     total cpu time spent up to now is       11.2 secs

     End of self-consistent calculation

          k = 0.0000 0.0000 0.0000 (  4167 PWs)   bands (ev):

   -49.7006 -49.7006 -23.8975 -23.8974 -23.6276 -23.6276 -23.6274 -23.6274
    -3.4453  -3.1069  -2.2008  -1.6442   4.6144   5.8055   8.0531   8.4247
     8.4254   8.4402   8.4410   9.5739   9.5773   9.6317   9.6350  10.4695
    10.6632  11.8120  13.9705  13.9742  14.0041  14.0081  14.1305

     occupation numbers 
     1.0000   1.0000   1.0000   1.0000   1.0000   1.0000   1.0000   1.0000
     1.0000   1.0000   1.0000   1.0000   1.0000   1.0000   1.0000   1.0000
     1.0000   1.0000   1.0000   1.0000   1.0000   1.0000   1.0000   1.0000
     1.0000   1.0000   0.0000   0.0000   0.0000   0.0000   0.0000

          k = 0.0000 0.0000-0.1294 (  4156 PWs)   bands (ev):

   -49.7006 -49.7006 -23.8974 -23.8974 -23.6276 -23.6276 -23.6274 -23.6274
    -3.3064  -3.3064  -1.8964  -1.8964   5.1104   5.1104   8.4323   8.4323
     8.4331   8.4331   9.0735   9.0735   9.6028   9.6028   9.6061   9.6061
    11.5283  11.5283  13.9747  13.9747  13.9782  13.9782  14.2523

     occupation numbers 
     1.0000   1.0000   1.0000   1.0000   1.0000   1.0000   1.0000   1.0000
     1.0000   1.0000   1.0000   1.0000   1.0000   1.0000   1.0000   1.0000
     1.0000   1.0000   1.0000   1.0000   1.0000   1.0000   1.0000   1.0000
     1.0000   1.0000   0.0000   0.0000   0.0000   0.0000   0.0000

          k = 0.0000 0.1155 0.0000 (  4155 PWs)   bands (ev):

   -49.6960 -49.6960 -23.8886 -23.8885 -23.6721 -23.6721 -23.6375 -23.6375
    -3.2848  -2.9489  -2.1239  -1.5908   4.7942   5.9790   7.7688   8.0813
     8.1123   8.5867   8.6119   9.0290   9.3258   9.3918   9.7159  10.4930
    10.8113  11.4912  13.8169  13.8452  13.8907  13.9380  14.0144

     occupation numbers 
     1.0000   1.0000   1.0000   1.0000   1.0000   1.0000   1.0000   1.0000
     1.0000   1.0000   1.0000   1.0000   1.0000   1.0000   1.0000   1.0000
     1.0000   1.0000   1.0000   1.0000   1.0000   1.0000   1.0000   1.0000
     1.0000   1.0000   0.0000   0.0000   0.0000   0.0000   0.0000

          k = 0.0000 0.1155-0.1294 (  4136 PWs)   bands (ev):

   -49.6960 -49.6960 -23.8886 -23.8886 -23.6721 -23.6721 -23.6375 -23.6375
    -3.1482  -3.1482  -1.8295  -1.8295   5.2748   5.2748   8.0911   8.0911
     8.5929   8.5929   8.5988   8.5988   9.3591   9.3591   9.8459   9.8459
    11.3303  11.3303  13.8326  13.8326  13.9597  13.9597  14.0323

     occupation numbers 
     1.0000   1.0000   1.0000   1.0000   1.0000   1.0000   1.0000   1.0000
     1.0000   1.0000   1.0000   1.0000   1.0000   1.0000   1.0000   1.0000
     1.0000   1.0000   1.0000   1.0000   1.0000   1.0000   1.0000   1.0000
     1.0000   1.0000   0.0000   0.0000   0.0000   0.0000   0.0000

          k = 0.0000 0.2309 0.0000 (  4117 PWs)   bands (ev):

   -49.6839 -49.6839 -23.8653 -23.8652 -23.7874 -23.7874 -23.6637 -23.6637
    -2.8361  -2.5128  -1.9087  -1.4448   5.2192   6.2984   7.1932   7.3579
     7.5144   8.0929   8.7891   8.8689   9.0186   9.0737   9.5842  10.4015
    10.4688  10.6726  13.1202  13.5665  13.7817  13.8469  13.9040

     occupation numbers 
     1.0000   1.0000   1.0000   1.0000   1.0000   1.0000   1.0000   1.0000
     1.0000   1.0000   1.0000   1.0000   1.0000   1.0000   1.0000   1.0000
     1.0000   1.0000   1.0000   1.0000   1.0000   1.0000   1.0000   1.0000
     1.0000   1.0000   0.0000   0.0000   0.0000   0.0000   0.0000

          k = 0.0000 0.2309-0.1294 (  4118 PWs)   bands (ev):

   -49.6839 -49.6839 -23.8652 -23.8652 -23.7874 -23.7874 -23.6637 -23.6637
    -2.7085  -2.7085  -1.6445  -1.6445   5.6311   5.6311   7.3635   7.3635
     7.8873   7.8873   8.8237   8.8237   9.0514   9.0514   9.8210   9.8210
    10.6713  10.6713  13.4350  13.4350  13.6917  13.6917  14.1309

     occupation numbers 
     1.0000   1.0000   1.0000   1.0000   1.0000   1.0000   1.0000   1.0000
     1.0000   1.0000   1.0000   1.0000   1.0000   1.0000   1.0000   1.0000
     1.0000   1.0000   1.0000   1.0000   1.0000   1.0000   1.0000   1.0000
     1.0000   1.0000   0.0000   0.0000   0.0000   0.0000   0.0000

          k = 0.0000 0.3464 0.0000 (  4120 PWs)   bands (ev):

   -49.6690 -49.6690 -23.9272 -23.9272 -23.8363 -23.8362 -23.6960 -23.6959
    -2.2015  -1.9154  -1.6059  -1.2522   5.4220   6.0162   6.5696   6.8110
     7.1476   7.4480   8.2650   8.3552   9.2008   9.5462   9.6638   9.8608
     9.9196  10.1772  13.0550  13.3400  13.5701  13.9491  14.1731

     occupation numbers 
     1.0000   1.0000   1.0000   1.0000   1.0000   1.0000   1.0000   1.0000
     1.0000   1.0000   1.0000   1.0000   1.0000   1.0000   1.0000   1.0000
     1.0000   1.0000   1.0000   1.0000   1.0000   1.0000   1.0000   1.0000
     1.0000   1.0000   0.0000   0.0000   0.0000   0.0000   0.0000

          k = 0.0000 0.3464-0.1294 (  4096 PWs)   bands (ev):

   -49.6690 -49.6690 -23.9272 -23.9272 -23.8362 -23.8362 -23.6959 -23.6959
    -2.0954  -2.0954  -1.3925  -1.3925   5.6660   5.6660   6.6945   6.6945
     7.3649   7.3649   8.3080   8.3080   9.4227   9.4227   9.6072   9.6072
    10.1177  10.1177  13.4350  13.4350  13.4432  13.4432  14.6655

     occupation numbers 
     1.0000   1.0000   1.0000   1.0000   1.0000   1.0000   1.0000   1.0000
     1.0000   1.0000   1.0000   1.0000   1.0000   1.0000   1.0000   1.0000
     1.0000   1.0000   1.0000   1.0000   1.0000   1.0000   1.0000   1.0000
     1.0000   1.0000   0.0000   0.0000   0.0000   0.0000   0.0000

          k = 0.0000 0.4619 0.0000 (  4086 PWs)   bands (ev):

   -49.6569 -49.6569 -24.0382 -24.0382 -23.8127 -23.8126 -23.7218 -23.7218
    -1.5772  -1.3692  -1.3103  -1.0954   5.0832   5.4662   6.0566   6.4149
     6.5611   7.3510   7.9087   8.0048   8.9529   9.4042   9.9266   9.9751
    10.1324  10.3053  13.3919  13.5108  13.5245  14.0855  14.5614

     occupation numbers 
     1.0000   1.0000   1.0000   1.0000   1.0000   1.0000   1.0000   1.0000
     1.0000   1.0000   1.0000   1.0000   1.0000   1.0000   1.0000   1.0000
     1.0000   1.0000   1.0000   1.0000   1.0000   1.0000   1.0000   1.0000
     1.0000   1.0000   0.0000   0.0000   0.0000   0.0000   0.0000

          k = 0.0000 0.4619-0.1294 (  4100 PWs)   bands (ev):

   -49.6569 -49.6569 -24.0382 -24.0382 -23.8126 -23.8126 -23.7218 -23.7218
    -1.5097  -1.5097  -1.1663  -1.1663   5.2530   5.2530   6.1450   6.1450
     7.0762   7.0762   7.9549   7.9549   9.1151   9.1151  10.0306  10.0306
    10.1913  10.1913  13.4442  13.4442  13.7697  13.7697  15.0394

     occupation numbers 
     1.0000   1.0000   1.0000   1.0000   1.0000   1.0000   1.0000   1.0000
     1.0000   1.0000   1.0000   1.0000   1.0000   1.0000   1.0000   1.0000
     1.0000   1.0000   1.0000   1.0000   1.0000   1.0000   1.0000   1.0000
     1.0000   1.0000   0.0000   0.0000   0.0000   0.0000   0.0000

          k = 0.0000-0.5774 0.0000 (  4098 PWs)   bands (ev):

   -49.6522 -49.6522 -24.0801 -24.0801 -23.8036 -23.8036 -23.7317 -23.7317
    -1.2875  -1.1679  -1.1489  -1.0494   4.8525   5.2287   5.8538   6.1330
     6.4323   7.2075   7.7842   7.8822   8.9087   9.2180  10.0488  10.2983
    10.3012  10.4402  13.4908  13.5462  13.8669  14.1980  14.6924

     occupation numbers 
     1.0000   1.0000   1.0000   1.0000   1.0000   1.0000   1.0000   1.0000
     1.0000   1.0000   1.0000   1.0000   1.0000   1.0000   1.0000   1.0000
     1.0000   1.0000   1.0000   1.0000   1.0000   1.0000   1.0000   1.0000
     1.0000   1.0000   0.0000   0.0000   0.0000   0.0000   0.0000

          k = 0.0000-0.5774-0.1294 (  4076 PWs)   bands (ev):

   -49.6522 -49.6522 -24.0801 -24.0801 -23.8036 -23.8036 -23.7317 -23.7317
    -1.2484  -1.2484  -1.0785  -1.0785   5.0242   5.0242   5.9162   5.9162
     6.9178   6.9178   7.8313   7.8313   9.0414   9.0414  10.1737  10.1737
    10.3812  10.3812  13.5149  13.5149  14.0467  14.0467  15.0869

     occupation numbers 
     1.0000   1.0000   1.0000   1.0000   1.0000   1.0000   1.0000   1.0000
     1.0000   1.0000   1.0000   1.0000   1.0000   1.0000   1.0000   1.0000
     1.0000   1.0000   1.0000   1.0000   1.0000   1.0000   1.0000   1.0000
     1.0000   1.0000   0.0000   0.0000   0.0000   0.0000   0.0000

          k = 0.1000 0.1732 0.0000 (  4137 PWs)   bands (ev):

   -49.6877 -49.6877 -23.8725 -23.8724 -23.7489 -23.7489 -23.6589 -23.6589
    -2.9799  -2.6514  -1.9775  -1.4906   5.1043   6.2484   7.3983   7.6061
     7.6143   8.4646   8.7164   8.8428   8.8683   8.8987   9.8802  10.4656
    10.7259  10.9237  13.2078  13.6068  13.6910  13.8447  13.9151

     occupation numbers 
     1.0000   1.0000   1.0000   1.0000   1.0000   1.0000   1.0000   1.0000
     1.0000   1.0000   1.0000   1.0000   1.0000   1.0000   1.0000   1.0000
     1.0000   1.0000   1.0000   1.0000   1.0000   1.0000   1.0000   1.0000
     1.0000   1.0000   0.0000   0.0000   0.0000   0.0000   0.0000

          k = 0.1000 0.1732-0.1294 (  4124 PWs)   bands (ev):

   -49.6877 -49.6877 -23.8724 -23.8724 -23.7489 -23.7489 -23.6589 -23.6589
    -2.8489  -2.8489  -1.7031  -1.7031   5.5458   5.5458   7.5827   7.5827
     8.1451   8.1451   8.7551   8.7551   8.8942   8.8942  10.0351  10.0351
    10.8974  10.8974  13.4280  13.4281  13.7955  13.7955  13.9278

     occupation numbers 
     1.0000   1.0000   1.0000   1.0000   1.0000   1.0000   1.0000   1.0000
     1.0000   1.0000   1.0000   1.0000   1.0000   1.0000   1.0000   1.0000
     1.0000   1.0000   1.0000   1.0000   1.0000   1.0000   1.0000   1.0000
     1.0000   1.0000   0.0000   0.0000   0.0000   0.0000   0.0000

          k = 0.1000 0.2887 0.0000 (  4121 PWs)   bands (ev):

   -49.6742 -49.6742 -23.8685 -23.8685 -23.8463 -23.8462 -23.6960 -23.6960
    -2.4349  -2.1312  -1.7155  -1.3175   5.4644   6.2766   6.9177   7.0589
     7.3741   7.5465   7.9774   8.2758   9.1868   9.2309   9.8099  10.2203
    10.2421  10.2943  12.7501  13.4822  13.5538  13.7178  14.0288

     occupation numbers 
     1.0000   1.0000   1.0000   1.0000   1.0000   1.0000   1.0000   1.0000
     1.0000   1.0000   1.0000   1.0000   1.0000   1.0000   1.0000   1.0000
     1.0000   1.0000   1.0000   1.0000   1.0000   1.0000   1.0000   1.0000
     1.0000   1.0000   0.0000   0.0000   0.0000   0.0000   0.0000

          k = 0.1000 0.2887-0.1294 (  4098 PWs)   bands (ev):

   -49.6742 -49.6742 -23.8685 -23.8685 -23.8463 -23.8463 -23.6960 -23.6960
    -2.3192  -2.3192  -1.4811  -1.4811   5.7862   5.7862   7.0019   7.0019
     7.5618   7.5618   8.1293   8.1293   9.2082   9.2082   9.9229   9.9229
    10.2945  10.2945  13.1190  13.1190  13.6423  13.6423  14.1928

     occupation numbers 
     1.0000   1.0000   1.0000   1.0000   1.0000   1.0000   1.0000   1.0000
     1.0000   1.0000   1.0000   1.0000   1.0000   1.0000   1.0000   1.0000
     1.0000   1.0000   1.0000   1.0000   1.0000   1.0000   1.0000   1.0000
     1.0000   1.0000   0.0000   0.0000   0.0000   0.0000   0.0000

          k = 0.1000 0.4041 0.0000 (  4108 PWs)   bands (ev):

   -49.6606 -49.6606 -23.9856 -23.9856 -23.8200 -23.8199 -23.7332 -23.7332
    -1.7923  -1.5477  -1.4074  -1.1332   5.3672   5.7844   6.3222   6.6011
     6.7942   7.4873   7.6338   8.0064   9.1726   9.3267   9.3843   9.6870
    10.2521  10.3101  12.9053  13.5600  13.7014  14.0239  14.1464

     occupation numbers 
     1.0000   1.0000   1.0000   1.0000   1.0000   1.0000   1.0000   1.0000
     1.0000   1.0000   1.0000   1.0000   1.0000   1.0000   1.0000   1.0000
     1.0000   1.0000   1.0000   1.0000   1.0000   1.0000   1.0000   1.0000
     1.0000   1.0000   0.0000   0.0000   0.0000   0.0000   0.0000

          k = 0.1000 0.4041-0.1294 (  4098 PWs)   bands (ev):

   -49.6606 -49.6606 -23.9856 -23.9856 -23.8200 -23.8200 -23.7332 -23.7332
    -1.7080  -1.7080  -1.2324  -1.2324   5.5490   5.5490   6.4121   6.4121
     7.1542   7.1542   7.9102   7.9102   9.1988   9.1988   9.5333   9.5333
    10.2926  10.2926  13.2315  13.2315  13.7613  13.7613  14.6389

     occupation numbers 
     1.0000   1.0000   1.0000   1.0000   1.0000   1.0000   1.0000   1.0000
     1.0000   1.0000   1.0000   1.0000   1.0000   1.0000   1.0000   1.0000
     1.0000   1.0000   1.0000   1.0000   1.0000   1.0000   1.0000   1.0000
     1.0000   1.0000   0.0000   0.0000   0.0000   0.0000   0.0000

          k = 0.1000 0.5196 0.0000 (  4091 PWs)   bands (ev):

   -49.6522 -49.6522 -24.0569 -24.0569 -23.8037 -23.8036 -23.7561 -23.7561
    -1.3051  -1.1697  -1.1534  -1.0284   5.0608   5.4199   5.8859   6.0289
     6.5541   7.2979   7.6459   7.8804   8.9628   9.2533   9.3860   9.5235
    10.4817  10.6643  13.3690  13.6036  13.8772  14.2301  14.5786

     occupation numbers 
     1.0000   1.0000   1.0000   1.0000   1.0000   1.0000   1.0000   1.0000
     1.0000   1.0000   1.0000   1.0000   1.0000   1.0000   1.0000   1.0000
     1.0000   1.0000   1.0000   1.0000   1.0000   1.0000   1.0000   1.0000
     1.0000   1.0000   0.0000   0.0000   0.0000   0.0000   0.0000

          k = 0.1000 0.5196-0.1294 (  4114 PWs)   bands (ev):

   -49.6522 -49.6522 -24.0569 -24.0569 -23.8036 -23.8036 -23.7561 -23.7561
    -1.2624  -1.2624  -1.0659  -1.0659   5.2242   5.2242   5.9228   5.9228
     6.9206   6.9206   7.8421   7.8421   9.0800   9.0800   9.4398   9.4398
    10.5840  10.5840  13.4836  13.4836  14.0117  14.0117  14.9989

     occupation numbers 
     1.0000   1.0000   1.0000   1.0000   1.0000   1.0000   1.0000   1.0000
     1.0000   1.0000   1.0000   1.0000   1.0000   1.0000   1.0000   1.0000
     1.0000   1.0000   1.0000   1.0000   1.0000   1.0000   1.0000   1.0000
     1.0000   1.0000   0.0000   0.0000   0.0000   0.0000   0.0000

          k = 0.2000 0.3464 0.0000 (  4119 PWs)   bands (ev):

   -49.6620 -49.6620 -23.9508 -23.9508 -23.8228 -23.8227 -23.7527 -23.7527
    -1.8727  -1.6159  -1.4411  -1.1442   5.5442   5.9911   6.5518   6.7614
     7.1356   7.1464   7.4685   7.9825   8.7592   8.7873   9.7683   9.8867
    10.2677  10.2909  12.6487  13.6369  13.7347  13.7391  14.0331

     occupation numbers 
     1.0000   1.0000   1.0000   1.0000   1.0000   1.0000   1.0000   1.0000
     1.0000   1.0000   1.0000   1.0000   1.0000   1.0000   1.0000   1.0000
     1.0000   1.0000   1.0000   1.0000   1.0000   1.0000   1.0000   1.0000
     1.0000   1.0000   0.0000   0.0000   0.0000   0.0000   0.0000

          k = 0.2000 0.3464-0.1294 (  4118 PWs)   bands (ev):

   -49.6620 -49.6620 -23.9508 -23.9508 -23.8228 -23.8228 -23.7527 -23.7527
    -1.7827  -1.7827  -1.2544  -1.2544   5.7438   5.7438   6.6536   6.6536
     7.0718   7.0718   7.8747   7.8747   8.7417   8.7417   9.7744   9.7744
    10.2857  10.2857  13.0519  13.0519  13.8158  13.8158  14.2876

     occupation numbers 
     1.0000   1.0000   1.0000   1.0000   1.0000   1.0000   1.0000   1.0000
     1.0000   1.0000   1.0000   1.0000   1.0000   1.0000   1.0000   1.0000
     1.0000   1.0000   1.0000   1.0000   1.0000   1.0000   1.0000   1.0000
     1.0000   1.0000   0.0000   0.0000   0.0000   0.0000   0.0000

          k = 0.2000 0.4619 0.0000 (  4109 PWs)   bands (ev):

   -49.6522 -49.6522 -24.0082 -24.0082 -23.8070 -23.8070 -23.8037 -23.8037
    -1.3320  -1.1698  -1.1617  -0.9969   5.4687   5.7769   5.8636   5.9850
     6.9972   7.2669   7.4981   8.0020   8.1391   8.5020   9.1420   9.5955
    10.4824  10.6243  13.0588  13.6746  13.8611  14.0179  14.2589

     occupation numbers 
     1.0000   1.0000   1.0000   1.0000   1.0000   1.0000   1.0000   1.0000
     1.0000   1.0000   1.0000   1.0000   1.0000   1.0000   1.0000   1.0000
     1.0000   1.0000   1.0000   1.0000   1.0000   1.0000   1.0000   1.0000
     1.0000   1.0000   0.0000   0.0000   0.0000   0.0000   0.0000

          k = 0.2000 0.4619-0.1294 (  4116 PWs)   bands (ev):

   -49.6522 -49.6522 -24.0082 -24.0082 -23.8070 -23.8070 -23.8037 -23.8037
    -1.2836  -1.2836  -1.0466  -1.0466   5.6044   5.6044   5.9372   5.9372
     7.0458   7.0458   7.8297   7.8297   8.3626   8.3626   9.3146   9.3146
    10.5590  10.5590  13.3431  13.3431  13.9862  13.9862  14.4941

     occupation numbers 
     1.0000   1.0000   1.0000   1.0000   1.0000   1.0000   1.0000   1.0000
     1.0000   1.0000   1.0000   1.0000   1.0000   1.0000   1.0000   1.0000
     1.0000   1.0000   1.0000   1.0000   1.0000   1.0000   1.0000   1.0000
     1.0000   1.0000   0.0000   0.0000   0.0000   0.0000   0.0000

          k = 0.2000 0.5774 0.0000 (  4094 PWs)   bands (ev):

   -49.6485 -49.6485 -24.0282 -24.0282 -23.8294 -23.8294 -23.7964 -23.7964
    -1.0839  -1.0359  -0.9902  -0.9532   5.4500   5.5797   5.6865   5.7357
     6.7209   7.3002   7.4996   7.9837   8.0925   8.4621   8.8570   9.3791
    10.6978  10.9241  13.2311  13.3466  13.9049  14.3489  14.4522

     occupation numbers 
     1.0000   1.0000   1.0000   1.0000   1.0000   1.0000   1.0000   1.0000
     1.0000   1.0000   1.0000   1.0000   1.0000   1.0000   1.0000   1.0000
     1.0000   1.0000   1.0000   1.0000   1.0000   1.0000   1.0000   1.0000
     1.0000   1.0000   0.0000   0.0000   0.0000   0.0000   0.0000

          k = 0.2000 0.5774-0.1294 (  4112 PWs)   bands (ev):

   -49.6485 -49.6485 -24.0282 -24.0282 -23.8294 -23.8294 -23.7964 -23.7964
    -1.0649  -1.0649  -0.9667  -0.9667   5.5441   5.5441   5.6798   5.6798
     6.8769   6.8769   7.8682   7.8682   8.3464   8.3464   9.0341   9.0341
    10.8158  10.8158  13.2964  13.2964  14.2328  14.2328  14.5536

     occupation numbers 
     1.0000   1.0000   1.0000   1.0000   1.0000   1.0000   1.0000   1.0000
     1.0000   1.0000   1.0000   1.0000   1.0000   1.0000   1.0000   1.0000
     1.0000   1.0000   1.0000   1.0000   1.0000   1.0000   1.0000   1.0000
     1.0000   1.0000   0.0000   0.0000   0.0000   0.0000   0.0000

          k = 0.3000 0.5196 0.0000 (  4107 PWs)   bands (ev):

   -49.6470 -49.6470 -23.9876 -23.9876 -23.8874 -23.8874 -23.7936 -23.7936
    -0.9996  -0.9807  -0.9327  -0.9171   5.3873   5.5761   5.8805   6.0612
     7.0530   7.0541   7.4640   7.5373   7.7168   8.0034   8.8985   9.2662
    10.8400  11.0394  13.0152  13.1158  13.5690  14.4918  14.7264

     occupation numbers 
     1.0000   1.0000   1.0000   1.0000   1.0000   1.0000   1.0000   1.0000
     1.0000   1.0000   1.0000   1.0000   1.0000   1.0000   1.0000   1.0000
     1.0000   1.0000   1.0000   1.0000   1.0000   1.0000   1.0000   1.0000
     1.0000   1.0000   0.0000   0.0000   0.0000   0.0000   0.0000

          k = 0.3000 0.5196-0.1294 (  4104 PWs)   bands (ev):

   -49.6470 -49.6470 -23.9876 -23.9876 -23.8874 -23.8874 -23.7936 -23.7936
    -0.9913  -0.9913  -0.9237  -0.9237   5.4687   5.4687   6.0006   6.0006
     7.0478   7.0478   7.2816   7.2816   8.2046   8.2046   8.9279   8.9279
    10.9301  10.9301  13.0697  13.0697  14.0695  14.0695  14.6721

     occupation numbers 
     1.0000   1.0000   1.0000   1.0000   1.0000   1.0000   1.0000   1.0000
     1.0000   1.0000   1.0000   1.0000   1.0000   1.0000   1.0000   1.0000
     1.0000   1.0000   1.0000   1.0000   1.0000   1.0000   1.0000   1.0000
     1.0000   1.0000   0.0000   0.0000   0.0000   0.0000   0.0000

          k = 0.1000-0.0577 0.0000 (  4155 PWs)   bands (ev):

   -49.6960 -49.6960 -23.8886 -23.8885 -23.6720 -23.6720 -23.6376 -23.6376
    -3.2848  -2.9489  -2.1239  -1.5908   4.7942   5.9789   7.7694   8.0808
     8.1117   8.5873   8.6125   9.0308   9.3237   9.3896   9.7174  10.4931
    10.8114  11.4916  13.8146  13.8462  13.8885  13.9369  14.0150

     occupation numbers 
     1.0000   1.0000   1.0000   1.0000   1.0000   1.0000   1.0000   1.0000
     1.0000   1.0000   1.0000   1.0000   1.0000   1.0000   1.0000   1.0000
     1.0000   1.0000   1.0000   1.0000   1.0000   1.0000   1.0000   1.0000
     1.0000   1.0000   0.0000   0.0000   0.0000   0.0000   0.0000

          k = 0.1000-0.0577 0.1294 (  4136 PWs)   bands (ev):

   -49.6960 -49.6960 -23.8886 -23.8886 -23.6720 -23.6720 -23.6376 -23.6376
    -3.1483  -3.1483  -1.8294  -1.8294   5.2748   5.2748   8.0906   8.0906
     8.5940   8.5940   8.5994   8.5994   9.3569   9.3569   9.8468   9.8468
    11.3306  11.3306  13.8307  13.8307  13.9601  13.9601  14.0316

     occupation numbers 
     1.0000   1.0000   1.0000   1.0000   1.0000   1.0000   1.0000   1.0000
     1.0000   1.0000   1.0000   1.0000   1.0000   1.0000   1.0000   1.0000
     1.0000   1.0000   1.0000   1.0000   1.0000   1.0000   1.0000   1.0000
     1.0000   1.0000   0.0000   0.0000   0.0000   0.0000   0.0000

          k = 0.2000-0.1155 0.0000 (  4117 PWs)   bands (ev):

   -49.6839 -49.6839 -23.8653 -23.8652 -23.7873 -23.7873 -23.6638 -23.6638
    -2.8363  -2.5129  -1.9086  -1.4446   5.2190   6.2983   7.1941   7.3574
     7.5139   8.0939   8.7875   8.8672   9.0191   9.0741   9.5842  10.4020
    10.4688  10.6737  13.1207  13.5659  13.7804  13.8462  13.9037

     occupation numbers 
     1.0000   1.0000   1.0000   1.0000   1.0000   1.0000   1.0000   1.0000
     1.0000   1.0000   1.0000   1.0000   1.0000   1.0000   1.0000   1.0000
     1.0000   1.0000   1.0000   1.0000   1.0000   1.0000   1.0000   1.0000
     1.0000   1.0000   0.0000   0.0000   0.0000   0.0000   0.0000

          k = 0.2000-0.1155 0.1294 (  4118 PWs)   bands (ev):

   -49.6839 -49.6839 -23.8652 -23.8652 -23.7873 -23.7873 -23.6638 -23.6638
    -2.7086  -2.7086  -1.6443  -1.6443   5.6309   5.6309   7.3632   7.3632
     7.8881   7.8881   8.8221   8.8221   9.0518   9.0518   9.8209   9.8209
    10.6723  10.6723  13.4349  13.4349  13.6910  13.6910  14.1297

     occupation numbers 
     1.0000   1.0000   1.0000   1.0000   1.0000   1.0000   1.0000   1.0000
     1.0000   1.0000   1.0000   1.0000   1.0000   1.0000   1.0000   1.0000
     1.0000   1.0000   1.0000   1.0000   1.0000   1.0000   1.0000   1.0000
     1.0000   1.0000   0.0000   0.0000   0.0000   0.0000   0.0000

          k = 0.3000-0.1732 0.0000 (  4120 PWs)   bands (ev):

   -49.6690 -49.6690 -23.9271 -23.9271 -23.8363 -23.8362 -23.6960 -23.6960
    -2.2017  -1.9156  -1.6056  -1.2518   5.4218   6.0161   6.5701   6.8104
     7.1477   7.4474   8.2637   8.3539   9.2007   9.5463   9.6640   9.8612
     9.9209  10.1785  13.0550  13.3398  13.5698  13.9485  14.1720

     occupation numbers 
     1.0000   1.0000   1.0000   1.0000   1.0000   1.0000   1.0000   1.0000
     1.0000   1.0000   1.0000   1.0000   1.0000   1.0000   1.0000   1.0000
     1.0000   1.0000   1.0000   1.0000   1.0000   1.0000   1.0000   1.0000
     1.0000   1.0000   0.0000   0.0000   0.0000   0.0000   0.0000

          k = 0.3000-0.1732 0.1294 (  4096 PWs)   bands (ev):

   -49.6690 -49.6690 -23.9271 -23.9271 -23.8362 -23.8362 -23.6960 -23.6960
    -2.0957  -2.0957  -1.3921  -1.3921   5.6659   5.6659   6.6946   6.6946
     7.3645   7.3645   8.3067   8.3067   9.4230   9.4230   9.6073   9.6073
    10.1190  10.1190  13.4348  13.4348  13.4430  13.4430  14.6642

     occupation numbers 
     1.0000   1.0000   1.0000   1.0000   1.0000   1.0000   1.0000   1.0000
     1.0000   1.0000   1.0000   1.0000   1.0000   1.0000   1.0000   1.0000
     1.0000   1.0000   1.0000   1.0000   1.0000   1.0000   1.0000   1.0000
     1.0000   1.0000   0.0000   0.0000   0.0000   0.0000   0.0000

          k = 0.4000-0.2309 0.0000 (  4086 PWs)   bands (ev):

   -49.6569 -49.6569 -24.0381 -24.0381 -23.8127 -23.8126 -23.7219 -23.7219
    -1.5776  -1.3695  -1.3098  -1.0947   5.0833   5.4665   6.0564   6.4142
     6.5603   7.3503   7.9077   8.0037   8.9537   9.4049   9.9264   9.9764
    10.1322  10.3065  13.3921  13.5110  13.5243  14.0852  14.5600

     occupation numbers 
     1.0000   1.0000   1.0000   1.0000   1.0000   1.0000   1.0000   1.0000
     1.0000   1.0000   1.0000   1.0000   1.0000   1.0000   1.0000   1.0000
     1.0000   1.0000   1.0000   1.0000   1.0000   1.0000   1.0000   1.0000
     1.0000   1.0000   0.0000   0.0000   0.0000   0.0000   0.0000

          k = 0.4000-0.2309 0.1294 (  4100 PWs)   bands (ev):

   -49.6569 -49.6569 -24.0381 -24.0381 -23.8127 -23.8127 -23.7219 -23.7219
    -1.5100  -1.5100  -1.1658  -1.1658   5.2531   5.2531   6.1447   6.1447
     7.0754   7.0754   7.9538   7.9538   9.1160   9.1160  10.0304  10.0304
    10.1924  10.1924  13.4444  13.4444  13.7695  13.7695  15.0378

     occupation numbers 
     1.0000   1.0000   1.0000   1.0000   1.0000   1.0000   1.0000   1.0000
     1.0000   1.0000   1.0000   1.0000   1.0000   1.0000   1.0000   1.0000
     1.0000   1.0000   1.0000   1.0000   1.0000   1.0000   1.0000   1.0000
     1.0000   1.0000   0.0000   0.0000   0.0000   0.0000   0.0000

          k =-0.5000 0.2887 0.0000 (  4098 PWs)   bands (ev):

   -49.6522 -49.6522 -24.0800 -24.0800 -23.8037 -23.8036 -23.7318 -23.7318
    -1.2880  -1.1673  -1.1493  -1.0486   4.8528   5.2292   5.8532   6.1321
     6.4315   7.2069   7.7832   7.8811   8.9102   9.2185  10.0485  10.2987
    10.3017  10.4410  13.4912  13.5467  13.8668  14.1981  14.6909

     occupation numbers 
     1.0000   1.0000   1.0000   1.0000   1.0000   1.0000   1.0000   1.0000
     1.0000   1.0000   1.0000   1.0000   1.0000   1.0000   1.0000   1.0000
     1.0000   1.0000   1.0000   1.0000   1.0000   1.0000   1.0000   1.0000
     1.0000   1.0000   0.0000   0.0000   0.0000   0.0000   0.0000

          k =-0.5000 0.2887 0.1294 (  4076 PWs)   bands (ev):

   -49.6522 -49.6522 -24.0800 -24.0800 -23.8036 -23.8036 -23.7318 -23.7318
    -1.2487  -1.2487  -1.0779  -1.0779   5.0246   5.0246   5.9155   5.9155
     6.9169   6.9169   7.8303   7.8303   9.0425   9.0425  10.1734  10.1734
    10.3821  10.3821  13.5153  13.5153  14.0468  14.0468  15.0852

     occupation numbers 
     1.0000   1.0000   1.0000   1.0000   1.0000   1.0000   1.0000   1.0000
     1.0000   1.0000   1.0000   1.0000   1.0000   1.0000   1.0000   1.0000
     1.0000   1.0000   1.0000   1.0000   1.0000   1.0000   1.0000   1.0000
     1.0000   1.0000   0.0000   0.0000   0.0000   0.0000   0.0000

          k =-0.1000 0.1732 0.0000 (  4137 PWs)   bands (ev):

   -49.6877 -49.6877 -23.8725 -23.8724 -23.7488 -23.7487 -23.6590 -23.6590
    -2.9799  -2.6515  -1.9774  -1.4905   5.1042   6.2483   7.3993   7.6054
     7.6136   8.4660   8.7146   8.8412   8.8688   8.8992   9.8808  10.4661
    10.7256  10.9247  13.2077  13.6053  13.6911  13.8435  13.9145

     occupation numbers 
     1.0000   1.0000   1.0000   1.0000   1.0000   1.0000   1.0000   1.0000
     1.0000   1.0000   1.0000   1.0000   1.0000   1.0000   1.0000   1.0000
     1.0000   1.0000   1.0000   1.0000   1.0000   1.0000   1.0000   1.0000
     1.0000   1.0000   0.0000   0.0000   0.0000   0.0000   0.0000

          k =-0.1000 0.1732 0.1294 (  4124 PWs)   bands (ev):

   -49.6877 -49.6877 -23.8724 -23.8724 -23.7488 -23.7488 -23.6590 -23.6590
    -2.8490  -2.8490  -1.7030  -1.7030   5.5458   5.5458   7.5822   7.5822
     8.1462   8.1462   8.7535   8.7535   8.8945   8.8945  10.0353  10.0353
    10.8982  10.8982  13.4271  13.4271  13.7950  13.7950  13.9278

     occupation numbers 
     1.0000   1.0000   1.0000   1.0000   1.0000   1.0000   1.0000   1.0000
     1.0000   1.0000   1.0000   1.0000   1.0000   1.0000   1.0000   1.0000
     1.0000   1.0000   1.0000   1.0000   1.0000   1.0000   1.0000   1.0000
     1.0000   1.0000   0.0000   0.0000   0.0000   0.0000   0.0000

          k =-0.1000 0.2887 0.0000 (  4121 PWs)   bands (ev):

   -49.6742 -49.6742 -23.8684 -23.8684 -23.8463 -23.8462 -23.6960 -23.6960
    -2.4350  -2.1313  -1.7154  -1.3173   5.4644   6.2766   6.9181   7.0584
     7.3737   7.5457   7.9769   8.2764   9.1869   9.2306   9.8098  10.2212
    10.2417  10.2954  12.7495  13.4824  13.5537  13.7176  14.0292

     occupation numbers 
     1.0000   1.0000   1.0000   1.0000   1.0000   1.0000   1.0000   1.0000
     1.0000   1.0000   1.0000   1.0000   1.0000   1.0000   1.0000   1.0000
     1.0000   1.0000   1.0000   1.0000   1.0000   1.0000   1.0000   1.0000
     1.0000   1.0000   0.0000   0.0000   0.0000   0.0000   0.0000

          k = 0.3000-0.0577 0.0000 (  4121 PWs)   bands (ev):

   -49.6742 -49.6742 -23.8684 -23.8684 -23.8463 -23.8462 -23.6961 -23.6961
    -2.4351  -2.1313  -1.7152  -1.3171   5.4642   6.2765   6.9187   7.0581
     7.3735   7.5463   7.9760   8.2754   9.1871   9.2312   9.8096  10.2216
    10.2419  10.2957  12.7496  13.4824  13.5534  13.7173  14.0288

     occupation numbers 
     1.0000   1.0000   1.0000   1.0000   1.0000   1.0000   1.0000   1.0000
     1.0000   1.0000   1.0000   1.0000   1.0000   1.0000   1.0000   1.0000
     1.0000   1.0000   1.0000   1.0000   1.0000   1.0000   1.0000   1.0000
     1.0000   1.0000   0.0000   0.0000   0.0000   0.0000   0.0000

          k =-0.1000 0.2887 0.1294 (  4098 PWs)   bands (ev):

   -49.6742 -49.6742 -23.8684 -23.8684 -23.8463 -23.8463 -23.6960 -23.6960
    -2.3193  -2.3193  -1.4810  -1.4810   5.7862   5.7862   7.0016   7.0016
     7.5611   7.5611   8.1296   8.1296   9.2081   9.2081   9.9226   9.9226
    10.2955  10.2955  13.1182  13.1182  13.6429  13.6429  14.1934

     occupation numbers 
     1.0000   1.0000   1.0000   1.0000   1.0000   1.0000   1.0000   1.0000
     1.0000   1.0000   1.0000   1.0000   1.0000   1.0000   1.0000   1.0000
     1.0000   1.0000   1.0000   1.0000   1.0000   1.0000   1.0000   1.0000
     1.0000   1.0000   0.0000   0.0000   0.0000   0.0000   0.0000

          k = 0.3000-0.0577 0.1294 (  4098 PWs)   bands (ev):

   -49.6742 -49.6742 -23.8684 -23.8684 -23.8463 -23.8463 -23.6961 -23.6961
    -2.3194  -2.3194  -1.4808  -1.4808   5.7861   5.7861   7.0017   7.0017
     7.5615   7.5615   8.1286   8.1286   9.2085   9.2085   9.9226   9.9226
    10.2959  10.2959  13.1182  13.1182  13.6426  13.6426  14.1930

     occupation numbers 
     1.0000   1.0000   1.0000   1.0000   1.0000   1.0000   1.0000   1.0000
     1.0000   1.0000   1.0000   1.0000   1.0000   1.0000   1.0000   1.0000
     1.0000   1.0000   1.0000   1.0000   1.0000   1.0000   1.0000   1.0000
     1.0000   1.0000   0.0000   0.0000   0.0000   0.0000   0.0000

          k =-0.1000 0.4041 0.0000 (  4108 PWs)   bands (ev):

   -49.6606 -49.6606 -23.9856 -23.9856 -23.8200 -23.8199 -23.7332 -23.7332
    -1.7924  -1.5478  -1.4072  -1.1330   5.3671   5.7842   6.3217   6.6003
     6.7941   7.4874   7.6344   8.0072   9.1724   9.3255   9.3837   9.6867
    10.2530  10.3109  12.9049  13.5600  13.7020  14.0242  14.1476

     occupation numbers 
     1.0000   1.0000   1.0000   1.0000   1.0000   1.0000   1.0000   1.0000
     1.0000   1.0000   1.0000   1.0000   1.0000   1.0000   1.0000   1.0000
     1.0000   1.0000   1.0000   1.0000   1.0000   1.0000   1.0000   1.0000
     1.0000   1.0000   0.0000   0.0000   0.0000   0.0000   0.0000

          k = 0.4000-0.1155 0.0000 (  4108 PWs)   bands (ev):

   -49.6606 -49.6606 -23.9855 -23.9855 -23.8200 -23.8199 -23.7333 -23.7333
    -1.7926  -1.5480  -1.4069  -1.1326   5.3671   5.7844   6.3220   6.6002
     6.7934   7.4868   7.6333   8.0061   9.1730   9.3266   9.3844   9.6872
    10.2530  10.3112  12.9050  13.5602  13.7019  14.0237  14.1466

     occupation numbers 
     1.0000   1.0000   1.0000   1.0000   1.0000   1.0000   1.0000   1.0000
     1.0000   1.0000   1.0000   1.0000   1.0000   1.0000   1.0000   1.0000
     1.0000   1.0000   1.0000   1.0000   1.0000   1.0000   1.0000   1.0000
     1.0000   1.0000   0.0000   0.0000   0.0000   0.0000   0.0000

          k =-0.1000 0.4041 0.1294 (  4098 PWs)   bands (ev):

   -49.6606 -49.6606 -23.9856 -23.9856 -23.8200 -23.8200 -23.7332 -23.7332
    -1.7081  -1.7081  -1.2322  -1.2322   5.5489   5.5489   6.4116   6.4116
     7.1540   7.1540   7.9110   7.9110   9.1982   9.1982   9.5326   9.5326
    10.2935  10.2935  13.2312  13.2312  13.7620  13.7620  14.6405

     occupation numbers 
     1.0000   1.0000   1.0000   1.0000   1.0000   1.0000   1.0000   1.0000
     1.0000   1.0000   1.0000   1.0000   1.0000   1.0000   1.0000   1.0000
     1.0000   1.0000   1.0000   1.0000   1.0000   1.0000   1.0000   1.0000
     1.0000   1.0000   0.0000   0.0000   0.0000   0.0000   0.0000

          k = 0.4000-0.1155 0.1294 (  4098 PWs)   bands (ev):

   -49.6606 -49.6606 -23.9855 -23.9855 -23.8200 -23.8200 -23.7333 -23.7333
    -1.7083  -1.7083  -1.2319  -1.2319   5.5490   5.5490   6.4117   6.4117
     7.1533   7.1533   7.9100   7.9100   9.1991   9.1991   9.5333   9.5333
    10.2936  10.2936  13.2313  13.2313  13.7617  13.7617  14.6395

     occupation numbers 
     1.0000   1.0000   1.0000   1.0000   1.0000   1.0000   1.0000   1.0000
     1.0000   1.0000   1.0000   1.0000   1.0000   1.0000   1.0000   1.0000
     1.0000   1.0000   1.0000   1.0000   1.0000   1.0000   1.0000   1.0000
     1.0000   1.0000   0.0000   0.0000   0.0000   0.0000   0.0000

          k =-0.1000 0.5196 0.0000 (  4091 PWs)   bands (ev):

   -49.6522 -49.6522 -24.0569 -24.0569 -23.8037 -23.8036 -23.7562 -23.7562
    -1.3052  -1.1696  -1.1534  -1.0283   5.0608   5.4198   5.8856   6.0286
     6.5542   7.2981   7.6464   7.8806   8.9624   9.2532   9.3859   9.5227
    10.4822  10.6644  13.3688  13.6036  13.8777  14.2304  14.5807

     occupation numbers 
     1.0000   1.0000   1.0000   1.0000   1.0000   1.0000   1.0000   1.0000
     1.0000   1.0000   1.0000   1.0000   1.0000   1.0000   1.0000   1.0000
     1.0000   1.0000   1.0000   1.0000   1.0000   1.0000   1.0000   1.0000
     1.0000   1.0000   0.0000   0.0000   0.0000   0.0000   0.0000

          k = 0.5000-0.1732 0.0000 (  4091 PWs)   bands (ev):

   -49.6522 -49.6522 -24.0568 -24.0568 -23.8037 -23.8036 -23.7562 -23.7562
    -1.3056  -1.1691  -1.1538  -1.0277   5.0611   5.4202   5.8852   6.0279
     6.5533   7.2974   7.6453   7.8797   8.9639   9.2534   9.3865   9.5232
    10.4824  10.6647  13.3691  13.6040  13.8776  14.2304  14.5794

     occupation numbers 
     1.0000   1.0000   1.0000   1.0000   1.0000   1.0000   1.0000   1.0000
     1.0000   1.0000   1.0000   1.0000   1.0000   1.0000   1.0000   1.0000
     1.0000   1.0000   1.0000   1.0000   1.0000   1.0000   1.0000   1.0000
     1.0000   1.0000   0.0000   0.0000   0.0000   0.0000   0.0000

          k =-0.1000 0.5196 0.1294 (  4114 PWs)   bands (ev):

   -49.6522 -49.6522 -24.0569 -24.0569 -23.8036 -23.8036 -23.7562 -23.7562
    -1.2624  -1.2624  -1.0658  -1.0658   5.2242   5.2242   5.9226   5.9226
     6.9206   6.9206   7.8426   7.8426   9.0797   9.0797   9.4394   9.4394
    10.5843  10.5843  13.4835  13.4835  14.0122  14.0122  15.0005

     occupation numbers 
     1.0000   1.0000   1.0000   1.0000   1.0000   1.0000   1.0000   1.0000
     1.0000   1.0000   1.0000   1.0000   1.0000   1.0000   1.0000   1.0000
     1.0000   1.0000   1.0000   1.0000   1.0000   1.0000   1.0000   1.0000
     1.0000   1.0000   0.0000   0.0000   0.0000   0.0000   0.0000

          k = 0.5000-0.1732 0.1294 (  4114 PWs)   bands (ev):

   -49.6522 -49.6522 -24.0568 -24.0568 -23.8037 -23.8037 -23.7562 -23.7562
    -1.2627  -1.2627  -1.0653  -1.0653   5.2245   5.2245   5.9221   5.9221
     6.9198   6.9198   7.8416   7.8416   9.0808   9.0808   9.4397   9.4397
    10.5846  10.5846  13.4838  13.4838  14.0121  14.0121  14.9998

     occupation numbers 
     1.0000   1.0000   1.0000   1.0000   1.0000   1.0000   1.0000   1.0000
     1.0000   1.0000   1.0000   1.0000   1.0000   1.0000   1.0000   1.0000
     1.0000   1.0000   1.0000   1.0000   1.0000   1.0000   1.0000   1.0000
     1.0000   1.0000   0.0000   0.0000   0.0000   0.0000   0.0000

          k =-0.2000 0.3464 0.0000 (  4119 PWs)   bands (ev):

   -49.6621 -49.6621 -23.9506 -23.9506 -23.8228 -23.8227 -23.7528 -23.7528
    -1.8729  -1.6161  -1.4407  -1.1438   5.5441   5.9910   6.5510   6.7603
     7.1349   7.1468   7.4684   7.9832   8.7594   8.7872   9.7681   9.8863
    10.2685  10.2916  12.6484  13.6371  13.7353  13.7398  14.0334

     occupation numbers 
     1.0000   1.0000   1.0000   1.0000   1.0000   1.0000   1.0000   1.0000
     1.0000   1.0000   1.0000   1.0000   1.0000   1.0000   1.0000   1.0000
     1.0000   1.0000   1.0000   1.0000   1.0000   1.0000   1.0000   1.0000
     1.0000   1.0000   0.0000   0.0000   0.0000   0.0000   0.0000

          k =-0.2000 0.3464 0.1294 (  4118 PWs)   bands (ev):

   -49.6621 -49.6621 -23.9506 -23.9506 -23.8228 -23.8228 -23.7528 -23.7528
    -1.7829  -1.7829  -1.2541  -1.2541   5.7438   5.7438   6.6527   6.6527
     7.0713   7.0713   7.8752   7.8752   8.7418   8.7418   9.7741   9.7741
    10.2864  10.2864  13.0518  13.0518  13.8164  13.8164  14.2885

     occupation numbers 
     1.0000   1.0000   1.0000   1.0000   1.0000   1.0000   1.0000   1.0000
     1.0000   1.0000   1.0000   1.0000   1.0000   1.0000   1.0000   1.0000
     1.0000   1.0000   1.0000   1.0000   1.0000   1.0000   1.0000   1.0000
     1.0000   1.0000   0.0000   0.0000   0.0000   0.0000   0.0000

          k =-0.2000 0.4619 0.0000 (  4109 PWs)   bands (ev):

   -49.6522 -49.6522 -24.0081 -24.0081 -23.8071 -23.8071 -23.8037 -23.8037
    -1.3321  -1.1696  -1.1618  -0.9966   5.4686   5.7767   5.8628   5.9844
     6.9974   7.2676   7.4984   8.0025   8.1389   8.5012   9.1420   9.5952
    10.4826  10.6244  13.0589  13.6748  13.8618  14.0185  14.2596

     occupation numbers 
     1.0000   1.0000   1.0000   1.0000   1.0000   1.0000   1.0000   1.0000
     1.0000   1.0000   1.0000   1.0000   1.0000   1.0000   1.0000   1.0000
     1.0000   1.0000   1.0000   1.0000   1.0000   1.0000   1.0000   1.0000
     1.0000   1.0000   0.0000   0.0000   0.0000   0.0000   0.0000

          k = 0.5000-0.0577 0.0000 (  4109 PWs)   bands (ev):

   -49.6522 -49.6522 -24.0080 -24.0080 -23.8071 -23.8071 -23.8037 -23.8037
    -1.3323  -1.1694  -1.1619  -0.9964   5.4687   5.7770   5.8626   5.9842
     6.9967   7.2671   7.4980   8.0020   8.1391   8.5017   9.1426   9.5956
    10.4826  10.6246  13.0589  13.6749  13.8615  14.0186  14.2595

     occupation numbers 
     1.0000   1.0000   1.0000   1.0000   1.0000   1.0000   1.0000   1.0000
     1.0000   1.0000   1.0000   1.0000   1.0000   1.0000   1.0000   1.0000
     1.0000   1.0000   1.0000   1.0000   1.0000   1.0000   1.0000   1.0000
     1.0000   1.0000   0.0000   0.0000   0.0000   0.0000   0.0000

          k =-0.2000 0.4619 0.1294 (  4116 PWs)   bands (ev):

   -49.6522 -49.6522 -24.0081 -24.0081 -23.8071 -23.8071 -23.8037 -23.8037
    -1.2837  -1.2837  -1.0464  -1.0464   5.6042   5.6042   5.9366   5.9366
     7.0460   7.0460   7.8304   7.8304   8.3620   8.3620   9.3143   9.3143
    10.5592  10.5592  13.3433  13.3433  13.9870  13.9870  14.4949

     occupation numbers 
     1.0000   1.0000   1.0000   1.0000   1.0000   1.0000   1.0000   1.0000
     1.0000   1.0000   1.0000   1.0000   1.0000   1.0000   1.0000   1.0000
     1.0000   1.0000   1.0000   1.0000   1.0000   1.0000   1.0000   1.0000
     1.0000   1.0000   0.0000   0.0000   0.0000   0.0000   0.0000

          k = 0.5000-0.0577 0.1294 (  4116 PWs)   bands (ev):

   -49.6522 -49.6522 -24.0080 -24.0080 -23.8071 -23.8071 -23.8037 -23.8037
    -1.2838  -1.2838  -1.0462  -1.0462   5.6044   5.6044   5.9364   5.9364
     7.0454   7.0454   7.8300   7.8300   8.3623   8.3623   9.3148   9.3148
    10.5593  10.5593  13.3433  13.3433  13.9869  13.9869  14.4948

     occupation numbers 
     1.0000   1.0000   1.0000   1.0000   1.0000   1.0000   1.0000   1.0000
     1.0000   1.0000   1.0000   1.0000   1.0000   1.0000   1.0000   1.0000
     1.0000   1.0000   1.0000   1.0000   1.0000   1.0000   1.0000   1.0000
     1.0000   1.0000   0.0000   0.0000   0.0000   0.0000   0.0000

          k = 0.6000-0.1155 0.0000 (  4094 PWs)   bands (ev):

   -49.6485 -49.6485 -24.0281 -24.0280 -23.8295 -23.8295 -23.7964 -23.7964
    -1.0843  -1.0356  -0.9904  -0.9526   5.4503   5.5790   5.6860   5.7360
     6.7203   7.2999   7.4989   7.9835   8.0925   8.4621   8.8578   9.3798
    10.6980  10.9243  13.2313  13.3469  13.9049  14.3498  14.4522

     occupation numbers 
     1.0000   1.0000   1.0000   1.0000   1.0000   1.0000   1.0000   1.0000
     1.0000   1.0000   1.0000   1.0000   1.0000   1.0000   1.0000   1.0000
     1.0000   1.0000   1.0000   1.0000   1.0000   1.0000   1.0000   1.0000
     1.0000   1.0000   0.0000   0.0000   0.0000   0.0000   0.0000

          k = 0.6000-0.1155 0.1294 (  4112 PWs)   bands (ev):

   -49.6485 -49.6485 -24.0281 -24.0281 -23.8295 -23.8295 -23.7964 -23.7964
    -1.0651  -1.0651  -0.9664  -0.9664   5.5439   5.5439   5.6796   5.6796
     6.8764   6.8764   7.8678   7.8678   8.3463   8.3463   9.0349   9.0349
    10.8160  10.8160  13.2967  13.2967  14.2331  14.2331  14.5537

     occupation numbers 
     1.0000   1.0000   1.0000   1.0000   1.0000   1.0000   1.0000   1.0000
     1.0000   1.0000   1.0000   1.0000   1.0000   1.0000   1.0000   1.0000
     1.0000   1.0000   1.0000   1.0000   1.0000   1.0000   1.0000   1.0000
     1.0000   1.0000   0.0000   0.0000   0.0000   0.0000   0.0000

          k =-0.3000 0.5196 0.0000 (  4107 PWs)   bands (ev):

   -49.6470 -49.6470 -23.9875 -23.9875 -23.8875 -23.8875 -23.7936 -23.7936
    -0.9998  -0.9805  -0.9328  -0.9168   5.3869   5.5758   5.8804   6.0613
     7.0529   7.0548   7.4640   7.5373   7.7160   8.0034   8.8988   9.2663
    10.8399  11.0394  13.0153  13.1160  13.5691  14.4920  14.7259

     occupation numbers 
     1.0000   1.0000   1.0000   1.0000   1.0000   1.0000   1.0000   1.0000
     1.0000   1.0000   1.0000   1.0000   1.0000   1.0000   1.0000   1.0000
     1.0000   1.0000   1.0000   1.0000   1.0000   1.0000   1.0000   1.0000
     1.0000   1.0000   0.0000   0.0000   0.0000   0.0000   0.0000

          k =-0.3000 0.5196 0.1294 (  4104 PWs)   bands (ev):

   -49.6470 -49.6470 -23.9875 -23.9875 -23.8875 -23.8875 -23.7936 -23.7936
    -0.9913  -0.9913  -0.9236  -0.9236   5.4683   5.4683   6.0006   6.0006
     7.0485   7.0485   7.2809   7.2809   8.2045   8.2045   8.9281   8.9281
    10.9301  10.9301  13.0699  13.0699  14.0699  14.0699  14.6723

     occupation numbers 
     1.0000   1.0000   1.0000   1.0000   1.0000   1.0000   1.0000   1.0000
     1.0000   1.0000   1.0000   1.0000   1.0000   1.0000   1.0000   1.0000
     1.0000   1.0000   1.0000   1.0000   1.0000   1.0000   1.0000   1.0000
     1.0000   1.0000   0.0000   0.0000   0.0000   0.0000   0.0000

     the Fermi energy is    12.0994 ev

!    total energy              =    -371.16741483 Ry
     Harris-Foulkes estimate   =    -371.16741509 Ry
     estimated scf accuracy    <       0.00000028 Ry

     The total energy is the sum of the following terms:

     one-electron contribution =    -163.60228243 Ry
     hartree contribution      =     104.77757082 Ry
     xc contribution           =     -65.37175576 Ry
     ewald contribution        =    -246.86206177 Ry
     DFT-D3 Dispersion         =      -0.10888569 Ry
     smearing contrib. (-TS)   =      -0.00000000 Ry

     convergence has been achieved in   9 iterations

     Forces acting on atoms (cartesian axes, Ry/au):

     atom    1 type  1   force =    -0.00026379    0.00015230    0.00000000
     atom    2 type  1   force =     0.00026379   -0.00015230    0.00000000
     atom    3 type  2   force =    -0.00013247    0.00007648   -0.01296169
     atom    4 type  2   force =     0.00013247   -0.00007648   -0.01296169
     atom    5 type  2   force =     0.00013247   -0.00007648    0.01296169
     atom    6 type  2   force =    -0.00013247    0.00007648    0.01296169
     The non-local contrib.  to forces
     atom    1 type  1   force =     0.00002876   -0.00001661    0.00000000
     atom    2 type  1   force =    -0.00002876    0.00001661    0.00000000
     atom    3 type  2   force =    -0.00012838    0.00007412    0.26095316
     atom    4 type  2   force =     0.00012838   -0.00007412    0.26095316
     atom    5 type  2   force =     0.00012838   -0.00007412   -0.26095316
     atom    6 type  2   force =    -0.00012838    0.00007412   -0.26095316
     The ionic contribution  to forces
     atom    1 type  1   force =    -0.00167143    0.00096500   -0.00000000
     atom    2 type  1   force =     0.00167143   -0.00096500    0.00000000
     atom    3 type  2   force =    -0.00085370    0.00049288  -14.05108400
     atom    4 type  2   force =     0.00085370   -0.00049288  -14.05108400
     atom    5 type  2   force =     0.00085370   -0.00049288   14.05108400
     atom    6 type  2   force =    -0.00085370    0.00049288   14.05108400
     The local contribution  to forces
     atom    1 type  1   force =     0.00137950   -0.00079645   -0.00000000
     atom    2 type  1   force =    -0.00137950    0.00079645   -0.00000000
     atom    3 type  2   force =     0.00084212   -0.00048620   13.78972408
     atom    4 type  2   force =    -0.00084212    0.00048620   13.78972408
     atom    5 type  2   force =    -0.00084212    0.00048620  -13.78972408
     atom    6 type  2   force =     0.00084212   -0.00048620  -13.78972408
     The core correction contribution to forces
     atom    1 type  1   force =     0.00000000    0.00000000    0.00000000
     atom    2 type  1   force =     0.00000000    0.00000000    0.00000000
     atom    3 type  2   force =     0.00000784   -0.00000453   -0.01313745
     atom    4 type  2   force =    -0.00000784    0.00000453   -0.01313745
     atom    5 type  2   force =    -0.00000784    0.00000453    0.01313745
     atom    6 type  2   force =     0.00000784   -0.00000453    0.01313745
     The Hubbard contrib.    to forces
     atom    1 type  1   force =     0.00000000    0.00000000    0.00000000
     atom    2 type  1   force =     0.00000000    0.00000000    0.00000000
     atom    3 type  2   force =     0.00000000    0.00000000    0.00000000
     atom    4 type  2   force =     0.00000000    0.00000000    0.00000000
     atom    5 type  2   force =     0.00000000    0.00000000    0.00000000
     atom    6 type  2   force =     0.00000000    0.00000000    0.00000000
     The SCF correction term to forces
     atom    1 type  1   force =     0.00000096   -0.00000055   -0.00000000
     atom    2 type  1   force =    -0.00000096    0.00000055   -0.00000000
     atom    3 type  2   force =     0.00000035   -0.00000020    0.00058248
     atom    4 type  2   force =    -0.00000035    0.00000020    0.00058248
     atom    5 type  2   force =    -0.00000035    0.00000020   -0.00058248
     atom    6 type  2   force =     0.00000035   -0.00000020   -0.00058248

     DFT-D3 dispersion contribution to forces:
     atom    1 type  1   force =    -0.00000157    0.00000091   -0.00000000
     atom    2 type  1   force =     0.00000157   -0.00000091    0.00000000
     atom    3 type  2   force =    -0.00000071    0.00000041    0.00000004
     atom    4 type  2   force =     0.00000071   -0.00000041    0.00000004
     atom    5 type  2   force =     0.00000071   -0.00000041   -0.00000004
     atom    6 type  2   force =    -0.00000071    0.00000041   -0.00000004

     Total force =     0.025929     Total SCF correction =     0.001165

     DFT-D3 dispersion Force =     0.000003


     Computing stress (Cartesian axis) and pressure

          total   stress  (Ry/bohr**3)                   (kbar)     P=   53.65
   0.00037512   0.00000049   0.00000000         55.18      0.07      0.00
   0.00000049   0.00037569   0.00000000          0.07     55.27      0.00
   0.00000000   0.00000000   0.00034336          0.00      0.00     50.51

     kinetic stress (kbar)  16562.33     -0.04      0.00
                               -0.04  16562.29      0.00
                                0.00      0.00  16665.88

     local   stress (kbar) -28929.48     -3.65      0.00
                               -3.65 -28933.68     -0.00
                                0.00     -0.00  23880.56

     nonloc. stress (kbar)   8505.76      0.02      0.00
                                0.02   8505.78      0.00
                                0.00      0.00   8542.14

     hartree stress (kbar)  15392.08      0.97     -0.00
                                0.97  15393.19      0.00
                               -0.00      0.00  -8401.59

     exc-cor stress (kbar)   -261.68      0.01      0.00
                                0.01   -261.67      0.00
                                0.00      0.00   -258.33

     corecor stress (kbar)  -3330.39     -0.00      0.00
                               -0.00  -3330.39     -0.00
                                0.00     -0.00  -3336.56

     ewald   stress (kbar)  -7861.57      2.77      0.00
                                2.77  -7858.37      0.00
                                0.00      0.00 -37017.31

     hubbard stress (kbar)      0.00      0.00      0.00
                                0.00      0.00      0.00
                                0.00      0.00      0.00

     london  stress (kbar)      0.00      0.00      0.00
                                0.00      0.00      0.00
                                0.00      0.00      0.00

     DFT-D3  stress (kbar)    -21.88     -0.00     -0.00
                               -0.00    -21.88      0.00
                               -0.00      0.00    -24.27

     XDM     stress (kbar)      0.00      0.00      0.00
                                0.00      0.00      0.00
                                0.00      0.00      0.00

     dft-nl  stress (kbar)      0.00      0.00      0.00
                                0.00      0.00      0.00
                                0.00      0.00      0.00

     TS-vdW  stress (kbar)      0.00      0.00      0.00
                                0.00      0.00      0.00
                                0.00      0.00      0.00



     BFGS Geometry Optimization

     number of scf cycles    =   1
     number of bfgs steps    =   0

     enthalpy new            =    -371.1674148307 Ry

     new trust radius        =       0.0492928895 bohr
     new conv_thr            =       0.0000010000 Ry

     new unit-cell volume =    707.60413 a.u.^3 (   104.85611 Ang^3 )
     density =      5.06953 g/cm^3

CELL_PARAMETERS (angstrom)
   3.153296961   0.000038594   0.000000000
  -1.576615057   2.730854571   0.000000000
   0.000000000   0.000000000  12.176633635

ATOMIC_POSITIONS (angstrom)
Mo       1.576676388   0.910300906   9.132475227
Mo       0.000005516   1.820592259   3.044158409
S        1.576746528   0.910260411   1.466454761
S       -0.000064624   1.820632754   7.554771579
S       -0.000064624   1.820632754  10.710178874
S        1.576746528   0.910260411   4.621862056



     Writing output data file VLAB.save/
     NEW-OLD atomic charge density approx. for the potential
     extrapolated charge   53.39680, renormalised to   52.00000

     total cpu time spent up to now is       12.7 secs

     Self-consistent Calculation

     iteration #  1     ecut=    50.00 Ry     beta= 0.50
     Davidson diagonalization with overlap
     ethr =  1.00E-06,  avg # of iterations = 11.2

     total cpu time spent up to now is       14.2 secs

     total energy              =    -369.77627674 Ry
     Harris-Foulkes estimate   =    -367.54956763 Ry
     estimated scf accuracy    <       1.58133320 Ry

     iteration #  2     ecut=    50.00 Ry     beta= 0.50
     Davidson diagonalization with overlap
     ethr =  3.04E-03,  avg # of iterations =  5.1

     total cpu time spent up to now is       15.0 secs

     total energy              =    -369.74446690 Ry
     Harris-Foulkes estimate   =    -373.94352783 Ry
     estimated scf accuracy    <      22.63103923 Ry

     iteration #  3     ecut=    50.00 Ry     beta= 0.50
     Davidson diagonalization with overlap
     ethr =  3.04E-03,  avg # of iterations =  3.2

     total cpu time spent up to now is       15.4 secs

     total energy              =    -371.19676899 Ry
     Harris-Foulkes estimate   =    -371.27416723 Ry
     estimated scf accuracy    <       0.79899399 Ry

     iteration #  4     ecut=    50.00 Ry     beta= 0.50
     Davidson diagonalization with overlap
     ethr =  1.54E-03,  avg # of iterations =  1.1

     total cpu time spent up to now is       15.8 secs

     total energy              =    -371.16608960 Ry
     Harris-Foulkes estimate   =    -371.21150380 Ry
     estimated scf accuracy    <       0.43636376 Ry

     iteration #  5     ecut=    50.00 Ry     beta= 0.50
     Davidson diagonalization with overlap
     ethr =  8.39E-04,  avg # of iterations =  1.0

     total cpu time spent up to now is       16.1 secs

     total energy              =    -371.16789210 Ry
     Harris-Foulkes estimate   =    -371.17842035 Ry
     estimated scf accuracy    <       0.17982811 Ry

     iteration #  6     ecut=    50.00 Ry     beta= 0.50
     Davidson diagonalization with overlap
     ethr =  3.46E-04,  avg # of iterations =  2.5

     total cpu time spent up to now is       16.5 secs

     total energy              =    -371.17319048 Ry
     Harris-Foulkes estimate   =    -371.17509245 Ry
     estimated scf accuracy    <       0.08678858 Ry

     iteration #  7     ecut=    50.00 Ry     beta= 0.50
     Davidson diagonalization with overlap
     ethr =  1.67E-04,  avg # of iterations =  2.4

     total cpu time spent up to now is       16.9 secs

     total energy              =    -371.17588144 Ry
     Harris-Foulkes estimate   =    -371.17604445 Ry
     estimated scf accuracy    <       0.05554685 Ry

     iteration #  8     ecut=    50.00 Ry     beta= 0.50
     Davidson diagonalization with overlap
     ethr =  1.07E-04,  avg # of iterations =  1.1

     total cpu time spent up to now is       17.2 secs

     total energy              =    -371.17643166 Ry
     Harris-Foulkes estimate   =    -371.17644079 Ry
     estimated scf accuracy    <       0.05065160 Ry

     iteration #  9     ecut=    50.00 Ry     beta= 0.50
     Davidson diagonalization with overlap
     ethr =  9.74E-05,  avg # of iterations =  1.0

     total cpu time spent up to now is       17.6 secs

     total energy              =    -371.17619189 Ry
     Harris-Foulkes estimate   =    -371.17668410 Ry
     estimated scf accuracy    <       0.04729210 Ry

     iteration # 10     ecut=    50.00 Ry     beta= 0.50
     Davidson diagonalization with overlap
     ethr =  9.09E-05,  avg # of iterations =  1.0

     total cpu time spent up to now is       17.9 secs

     total energy              =    -371.16504689 Ry
     Harris-Foulkes estimate   =    -371.17634396 Ry
     estimated scf accuracy    <       0.04331279 Ry

     iteration # 11     ecut=    50.00 Ry     beta= 0.50
     Davidson diagonalization with overlap
     ethr =  8.33E-05,  avg # of iterations =  3.1

     total cpu time spent up to now is       18.4 secs

     total energy              =    -371.17089921 Ry
     Harris-Foulkes estimate   =    -371.17095127 Ry
     estimated scf accuracy    <       0.00019850 Ry

     iteration # 12     ecut=    50.00 Ry     beta= 0.50
     Davidson diagonalization with overlap
     ethr =  3.82E-07,  avg # of iterations =  5.3

     total cpu time spent up to now is       19.1 secs

     total energy              =    -371.17109025 Ry
     Harris-Foulkes estimate   =    -371.17111138 Ry
     estimated scf accuracy    <       0.00009579 Ry

     iteration # 13     ecut=    50.00 Ry     beta= 0.50
     Davidson diagonalization with overlap
     ethr =  1.84E-07,  avg # of iterations =  2.1

     total cpu time spent up to now is       19.5 secs

     total energy              =    -371.17108786 Ry
     Harris-Foulkes estimate   =    -371.17109643 Ry
     estimated scf accuracy    <       0.00001498 Ry

     iteration # 14     ecut=    50.00 Ry     beta= 0.50
     Davidson diagonalization with overlap
     ethr =  2.88E-08,  avg # of iterations =  3.8

     total cpu time spent up to now is       20.1 secs

     total energy              =    -371.17109481 Ry
[...]
     5.7735   6.3239   6.7765   6.9545   8.0827   8.3147   8.3839   8.4996
     9.5121   9.6443  12.2789  12.4455  12.7518  13.0295  13.5557

     occupation numbers 
     1.0000   1.0000   1.0000   1.0000   1.0000   1.0000   1.0000   1.0000
     1.0000   1.0000   1.0000   1.0000   1.0000   1.0000   1.0000   1.0000
     1.0000   1.0000   1.0000   1.0000   1.0000   1.0000   1.0000   1.0000
     1.0000   1.0000   0.0000   0.0000   0.0000   0.0000   0.0000

          k = 0.4932-0.1708 0.0000 (  4367 PWs)   bands (ev):

   -50.7235 -50.7235 -25.0704 -25.0704 -24.8407 -24.8406 -24.8118 -24.8118
    -2.2213  -2.1227  -2.0423  -1.9468   4.3120   4.5652   5.1122   5.2111
     5.7734   6.3240   6.7765   6.9546   8.0828   8.3148   8.3837   8.4996
     9.5122   9.6443  12.2789  12.4455  12.7518  13.0295  13.5557

     occupation numbers 
     1.0000   1.0000   1.0000   1.0000   1.0000   1.0000   1.0000   1.0000
     1.0000   1.0000   1.0000   1.0000   1.0000   1.0000   1.0000   1.0000
     1.0000   1.0000   1.0000   1.0000   1.0000   1.0000   1.0000   1.0000
     1.0000   1.0000   0.0000   0.0000   0.0000   0.0000   0.0000

          k =-0.0986 0.5125 0.1250 (  4382 PWs)   bands (ev):

   -50.7235 -50.7235 -25.0704 -25.0704 -24.8406 -24.8406 -24.8118 -24.8118
    -2.1845  -2.1845  -1.9820  -1.9820   4.4304   4.4304   5.1405   5.1405
     6.0451   6.0451   6.9119   6.9119   8.1759   8.1759   8.4387   8.4387
     9.5858   9.5858  12.3616  12.3616  12.8646  12.8646  13.8760

     occupation numbers 
     1.0000   1.0000   1.0000   1.0000   1.0000   1.0000   1.0000   1.0000
     1.0000   1.0000   1.0000   1.0000   1.0000   1.0000   1.0000   1.0000
     1.0000   1.0000   1.0000   1.0000   1.0000   1.0000   1.0000   1.0000
     1.0000   1.0000   0.0000   0.0000   0.0000   0.0000   0.0000

          k = 0.4932-0.1708 0.1250 (  4382 PWs)   bands (ev):

   -50.7235 -50.7235 -25.0704 -25.0704 -24.8406 -24.8406 -24.8118 -24.8118
    -2.1845  -2.1845  -1.9820  -1.9820   4.4304   4.4304   5.1405   5.1405
     6.0451   6.0451   6.9120   6.9120   8.1760   8.1760   8.4387   8.4387
     9.5858   9.5858  12.3616  12.3616  12.8646  12.8646  13.8760

     occupation numbers 
     1.0000   1.0000   1.0000   1.0000   1.0000   1.0000   1.0000   1.0000
     1.0000   1.0000   1.0000   1.0000   1.0000   1.0000   1.0000   1.0000
     1.0000   1.0000   1.0000   1.0000   1.0000   1.0000   1.0000   1.0000
     1.0000   1.0000   0.0000   0.0000   0.0000   0.0000   0.0000

          k =-0.1973 0.3417 0.0000 (  4351 PWs)   bands (ev):

   -50.7316 -50.7316 -24.9787 -24.9787 -24.8568 -24.8568 -24.8087 -24.8087
    -2.7295  -2.5612  -2.2754  -2.0768   4.7915   5.1265   5.7458   5.8872
     6.2151   6.3825   6.4831   7.0163   7.8152   7.8449   8.8208   8.8527
     9.2970   9.3004  11.7049  12.4932  12.6071  12.7044  12.8400

     occupation numbers 
     1.0000   1.0000   1.0000   1.0000   1.0000   1.0000   1.0000   1.0000
     1.0000   1.0000   1.0000   1.0000   1.0000   1.0000   1.0000   1.0000
     1.0000   1.0000   1.0000   1.0000   1.0000   1.0000   1.0000   1.0000
     1.0000   1.0000   0.0000   0.0000   0.0000   0.0000   0.0000

          k =-0.1973 0.3417 0.1250 (  4374 PWs)   bands (ev):

   -50.7316 -50.7316 -24.9787 -24.9787 -24.8568 -24.8568 -24.8087 -24.8087
    -2.6623  -2.6623  -2.1593  -2.1593   4.9474   4.9474   5.8108   5.8108
     6.2097   6.2097   6.8863   6.8863   7.8142   7.8142   8.8036   8.8036
     9.3022   9.3022  12.0365  12.0365  12.6651  12.6651  13.1424

     occupation numbers 
     1.0000   1.0000   1.0000   1.0000   1.0000   1.0000   1.0000   1.0000
     1.0000   1.0000   1.0000   1.0000   1.0000   1.0000   1.0000   1.0000
     1.0000   1.0000   1.0000   1.0000   1.0000   1.0000   1.0000   1.0000
     1.0000   1.0000   0.0000   0.0000   0.0000   0.0000   0.0000

          k =-0.1973 0.4556 0.0000 (  4371 PWs)   bands (ev):

   -50.7235 -50.7235 -25.0283 -25.0283 -24.8554 -24.8554 -24.8407 -24.8407
    -2.2433  -2.1327  -2.0394  -1.9238   4.7048   4.9296   5.0711   5.1580
     6.1447   6.5057   6.5079   7.0529   7.2674   7.5156   8.2443   8.5535
     9.5192   9.6145  12.0491  12.4977  12.8509  12.9159  13.0771

     occupation numbers 
     1.0000   1.0000   1.0000   1.0000   1.0000   1.0000   1.0000   1.0000
     1.0000   1.0000   1.0000   1.0000   1.0000   1.0000   1.0000   1.0000
     1.0000   1.0000   1.0000   1.0000   1.0000   1.0000   1.0000   1.0000
     1.0000   1.0000   0.0000   0.0000   0.0000   0.0000   0.0000

          k = 0.4932-0.0569 0.0000 (  4371 PWs)   bands (ev):

   -50.7235 -50.7235 -25.0283 -25.0283 -24.8554 -24.8554 -24.8407 -24.8407
    -2.2433  -2.1327  -2.0394  -1.9238   4.7048   4.9296   5.0711   5.1580
     6.1446   6.5058   6.5080   7.0529   7.2675   7.5156   8.2443   8.5534
     9.5192   9.6145  12.0491  12.4977  12.8509  12.9159  13.0771

     occupation numbers 
     1.0000   1.0000   1.0000   1.0000   1.0000   1.0000   1.0000   1.0000
     1.0000   1.0000   1.0000   1.0000   1.0000   1.0000   1.0000   1.0000
     1.0000   1.0000   1.0000   1.0000   1.0000   1.0000   1.0000   1.0000
     1.0000   1.0000   0.0000   0.0000   0.0000   0.0000   0.0000

          k =-0.1973 0.4556 0.1250 (  4378 PWs)   bands (ev):

   -50.7235 -50.7235 -25.0283 -25.0283 -24.8554 -24.8554 -24.8407 -24.8407
    -2.2024  -2.2024  -1.9672  -1.9672   4.8079   4.8079   5.1211   5.1211
     6.2084   6.2084   6.9002   6.9002   7.4095   7.4095   8.3665   8.3665
     9.5708   9.5708  12.2685  12.2685  12.8575  12.8575  13.3764

     occupation numbers 
     1.0000   1.0000   1.0000   1.0000   1.0000   1.0000   1.0000   1.0000
     1.0000   1.0000   1.0000   1.0000   1.0000   1.0000   1.0000   1.0000
     1.0000   1.0000   1.0000   1.0000   1.0000   1.0000   1.0000   1.0000
     1.0000   1.0000   0.0000   0.0000   0.0000   0.0000   0.0000

          k = 0.4932-0.0569 0.1250 (  4378 PWs)   bands (ev):

   -50.7235 -50.7235 -25.0283 -25.0283 -24.8554 -24.8554 -24.8407 -24.8407
    -2.2024  -2.2024  -1.9672  -1.9672   4.8079   4.8079   5.1211   5.1211
     6.2084   6.2084   6.9002   6.9002   7.4095   7.4095   8.3665   8.3665
     9.5708   9.5708  12.2685  12.2685  12.8575  12.8575  13.3764

     occupation numbers 
     1.0000   1.0000   1.0000   1.0000   1.0000   1.0000   1.0000   1.0000
     1.0000   1.0000   1.0000   1.0000   1.0000   1.0000   1.0000   1.0000
     1.0000   1.0000   1.0000   1.0000   1.0000   1.0000   1.0000   1.0000
     1.0000   1.0000   0.0000   0.0000   0.0000   0.0000   0.0000

          k = 0.5918-0.1139 0.0000 (  4372 PWs)   bands (ev):

   -50.7204 -50.7204 -25.0457 -25.0457 -24.8747 -24.8747 -24.8345 -24.8345
    -2.0271  -1.9663  -1.9279  -1.8718   4.6873   4.8016   4.8779   4.8923
     5.9071   6.3425   6.7086   7.0849   7.2043   7.4630   7.9509   8.3406
     9.7385   9.8967  12.1136  12.1937  13.0049  13.2235  13.2870

     occupation numbers 
     1.0000   1.0000   1.0000   1.0000   1.0000   1.0000   1.0000   1.0000
     1.0000   1.0000   1.0000   1.0000   1.0000   1.0000   1.0000   1.0000
     1.0000   1.0000   1.0000   1.0000   1.0000   1.0000   1.0000   1.0000
     1.0000   1.0000   0.0000   0.0000   0.0000   0.0000   0.0000

          k = 0.5918-0.1139 0.1250 (  4386 PWs)   bands (ev):

   -50.7204 -50.7204 -25.0457 -25.0457 -24.8747 -24.8747 -24.8345 -24.8345
    -2.0049  -2.0049  -1.8917  -1.8917   4.7619   4.7619   4.8663   4.8663
     6.0478   6.0478   6.9698   6.9698   7.3721   7.3721   8.0991   8.0991
     9.8210   9.8210  12.1578  12.1578  13.1776  13.1776  13.4416

     occupation numbers 
     1.0000   1.0000   1.0000   1.0000   1.0000   1.0000   1.0000   1.0000
     1.0000   1.0000   1.0000   1.0000   1.0000   1.0000   1.0000   1.0000
     1.0000   1.0000   1.0000   1.0000   1.0000   1.0000   1.0000   1.0000
     1.0000   1.0000   0.0000   0.0000   0.0000   0.0000   0.0000

          k =-0.2959 0.5125 0.0000 (  4381 PWs)   bands (ev):

   -50.7192 -50.7192 -25.0106 -25.0106 -24.9247 -24.9246 -24.8322 -24.8322
    -1.9537  -1.9105  -1.8803  -1.8377   4.6263   4.7573   5.1015   5.2363
     6.1828   6.2235   6.5077   6.7309   6.7759   7.1470   7.9355   8.2237
     9.8766  10.0130  11.9029  11.9702  12.7042  13.3696  13.5694

     occupation numbers 
     1.0000   1.0000   1.0000   1.0000   1.0000   1.0000   1.0000   1.0000
     1.0000   1.0000   1.0000   1.0000   1.0000   1.0000   1.0000   1.0000
     1.0000   1.0000   1.0000   1.0000   1.0000   1.0000   1.0000   1.0000
     1.0000   1.0000   0.0000   0.0000   0.0000   0.0000   0.0000

          k =-0.2959 0.5125 0.1250 (  4376 PWs)   bands (ev):

   -50.7192 -50.7192 -25.0106 -25.0106 -24.9247 -24.9247 -24.8322 -24.8322
    -1.9379  -1.9379  -1.8532  -1.8532   4.6850   4.6850   5.1859   5.1859
     6.1959   6.1959   6.4495   6.4495   7.2042   7.2042   7.9935   7.9935
     9.9403   9.9403  11.9390  11.9390  13.0789  13.0789  13.5186

     occupation numbers 
     1.0000   1.0000   1.0000   1.0000   1.0000   1.0000   1.0000   1.0000
     1.0000   1.0000   1.0000   1.0000   1.0000   1.0000   1.0000   1.0000
     1.0000   1.0000   1.0000   1.0000   1.0000   1.0000   1.0000   1.0000
     1.0000   1.0000   0.0000   0.0000   0.0000   0.0000   0.0000

     the Fermi energy is    10.9838 ev

!    total energy              =    -371.17270867 Ry
     Harris-Foulkes estimate   =    -371.17270867 Ry
     estimated scf accuracy    <          3.1E-10 Ry

     The total energy is the sum of the following terms:

     one-electron contribution =    -184.05149131 Ry
     hartree contribution      =     113.07085032 Ry
     xc contribution           =     -65.19705260 Ry
     ewald contribution        =    -234.89261600 Ry
     DFT-D3 Dispersion         =      -0.10239908 Ry
     smearing contrib. (-TS)   =      -0.00000000 Ry

     convergence has been achieved in  10 iterations

     Forces acting on atoms (cartesian axes, Ry/au):

     atom    1 type  1   force =     0.00000142   -0.00000082    0.00000000
     atom    2 type  1   force =    -0.00000142    0.00000082    0.00000000
     atom    3 type  2   force =     0.00000021   -0.00000012    0.00004330
     atom    4 type  2   force =    -0.00000021    0.00000012    0.00004330
     atom    5 type  2   force =    -0.00000021    0.00000012   -0.00004330
     atom    6 type  2   force =     0.00000021   -0.00000012   -0.00004330
     The non-local contrib.  to forces
     atom    1 type  1   force =    -0.00000042    0.00000024    0.00000000
     atom    2 type  1   force =     0.00000042   -0.00000024    0.00000000
     atom    3 type  2   force =     0.00000065   -0.00000037    0.27623858
     atom    4 type  2   force =    -0.00000065    0.00000037    0.27623858
     atom    5 type  2   force =    -0.00000065    0.00000037   -0.27623858
     atom    6 type  2   force =     0.00000065   -0.00000037   -0.27623858
     The ionic contribution  to forces
     atom    1 type  1   force =    -0.00004309    0.00002488    0.00000000
     atom    2 type  1   force =     0.00004309   -0.00002488   -0.00000000
     atom    3 type  2   force =    -0.00002482    0.00001433  -14.54373842
     atom    4 type  2   force =     0.00002482   -0.00001433  -14.54373842
     atom    5 type  2   force =     0.00002482   -0.00001433   14.54373842
     atom    6 type  2   force =    -0.00002482    0.00001433   14.54373842
     The local contribution  to forces
     atom    1 type  1   force =     0.00004497   -0.00002596    0.00000000
     atom    2 type  1   force =    -0.00004497    0.00002596    0.00000000
     atom    3 type  2   force =     0.00002432   -0.00001404   14.28187213
     atom    4 type  2   force =    -0.00002432    0.00001404   14.28187213
     atom    5 type  2   force =    -0.00002432    0.00001404  -14.28187213
     atom    6 type  2   force =     0.00002432   -0.00001404  -14.28187213
     The core correction contribution to forces
     atom    1 type  1   force =     0.00000000    0.00000000    0.00000000
     atom    2 type  1   force =     0.00000000    0.00000000    0.00000000
     atom    3 type  2   force =    -0.00000003    0.00000002   -0.01415641
     atom    4 type  2   force =     0.00000003   -0.00000002   -0.01415641
     atom    5 type  2   force =     0.00000003   -0.00000002    0.01415641
     atom    6 type  2   force =    -0.00000003    0.00000002    0.01415641
     The Hubbard contrib.    to forces
     atom    1 type  1   force =     0.00000000    0.00000000    0.00000000
     atom    2 type  1   force =     0.00000000    0.00000000    0.00000000
     atom    3 type  2   force =     0.00000000    0.00000000    0.00000000
     atom    4 type  2   force =     0.00000000    0.00000000    0.00000000
     atom    5 type  2   force =     0.00000000    0.00000000    0.00000000
     atom    6 type  2   force =     0.00000000    0.00000000    0.00000000
     The SCF correction term to forces
     atom    1 type  1   force =    -0.00000010    0.00000006    0.00000000
     atom    2 type  1   force =     0.00000010   -0.00000006    0.00000000
     atom    3 type  2   force =     0.00000007   -0.00000004    0.00002506
     atom    4 type  2   force =    -0.00000007    0.00000004    0.00002506
     atom    5 type  2   force =    -0.00000007    0.00000004   -0.00002506
     atom    6 type  2   force =     0.00000007   -0.00000004   -0.00002506

     DFT-D3 dispersion contribution to forces:
     atom    1 type  1   force =     0.00000007   -0.00000004   -0.00000000
     atom    2 type  1   force =    -0.00000007    0.00000004    0.00000000
     atom    3 type  2   force =     0.00000001   -0.00000000   -0.00019764
     atom    4 type  2   force =    -0.00000001    0.00000000   -0.00019764
     atom    5 type  2   force =    -0.00000001    0.00000000    0.00019764
     atom    6 type  2   force =     0.00000001   -0.00000000    0.00019764

     Total force =     0.000087     Total SCF correction =     0.000050

     DFT-D3 dispersion Force =     0.000395
     SCF correction compared to forces is large: reduce conv_thr to get better values


     Computing stress (Cartesian axis) and pressure

          total   stress  (Ry/bohr**3)                   (kbar)     P=   -0.11
  -0.00000053   0.00000003   0.00000000         -0.08      0.00      0.00
   0.00000003  -0.00000049   0.00000000          0.00     -0.07      0.00
   0.00000000   0.00000000  -0.00000130          0.00      0.00     -0.19

     kinetic stress (kbar)  15502.82      0.01      0.00
                                0.01  15502.83      0.00
                                0.00      0.00  15625.78

     local   stress (kbar) -30559.50     -0.05      0.00
                               -0.05 -30559.56      0.00
                                0.00      0.00  25131.23

     nonloc. stress (kbar)   7984.80     -0.00      0.00
                               -0.00   7984.80      0.00
                                0.00      0.00   8015.75

     hartree stress (kbar)  15943.49      0.02      0.00
                                0.02  15943.51     -0.00
                                0.00     -0.00  -9177.38

     exc-cor stress (kbar)   -235.91      0.00     -0.00
                                0.00   -235.91     -0.00
                               -0.00     -0.00   -234.02

     corecor stress (kbar)  -3130.05      0.00      0.00
                                0.00  -3130.05      0.00
                                0.00      0.00  -3135.76

     ewald   stress (kbar)  -5486.13      0.03     -0.00
                                0.03  -5486.10     -0.00
                               -0.00     -0.00 -36204.58

     hubbard stress (kbar)      0.00      0.00      0.00
                                0.00      0.00      0.00
                                0.00      0.00      0.00

     london  stress (kbar)      0.00      0.00      0.00
                                0.00      0.00      0.00
                                0.00      0.00      0.00

     DFT-D3  stress (kbar)    -19.60      0.00     -0.00
                                0.00    -19.60     -0.00
                               -0.00     -0.00    -21.21

     XDM     stress (kbar)      0.00      0.00      0.00
                                0.00      0.00      0.00
                                0.00      0.00      0.00

     dft-nl  stress (kbar)      0.00      0.00      0.00
                                0.00      0.00      0.00
                                0.00      0.00      0.00

     TS-vdW  stress (kbar)      0.00      0.00      0.00
                                0.00      0.00      0.00
                                0.00      0.00      0.00



     Writing output data file VLAB.save/
 
     init_run     :      1.05s CPU      5.36s WALL (       2 calls)
     electrons    :    101.54s CPU    104.49s WALL (      13 calls)
     update_pot   :      2.93s CPU      2.95s WALL (      11 calls)
     forces       :      5.99s CPU      6.01s WALL (      13 calls)
     stress       :      8.01s CPU      8.01s WALL (      13 calls)

     Called by init_run:
     wfcinit      :      0.41s CPU      2.14s WALL (       2 calls)
     wfcinit:wfcr :      0.40s CPU      2.12s WALL (      22 calls)
     potinit      :      0.14s CPU      0.15s WALL (       2 calls)
     hinit0       :      0.24s CPU      2.47s WALL (       2 calls)

     Called by electrons:
     c_bands      :     81.53s CPU     83.98s WALL (     217 calls)
     sum_band     :     12.35s CPU     12.73s WALL (     217 calls)
     v_of_rho     :      2.77s CPU      2.81s WALL (     228 calls)
     v_h          :      0.19s CPU      0.20s WALL (     228 calls)
     v_xc         :      2.84s CPU      2.88s WALL (     254 calls)
     newd         :      1.43s CPU      1.79s WALL (     228 calls)
     mix_rho      :      0.46s CPU      0.46s WALL (     217 calls)

     Called by c_bands:
     init_us_2    :      1.54s CPU      1.57s WALL (    5082 calls)
     cegterg      :     69.54s CPU     71.76s WALL (    2387 calls)

     Called by sum_band:
     sum_band:bec :      0.04s CPU      0.05s WALL (    2387 calls)
     addusdens    :      1.49s CPU      1.54s WALL (     217 calls)

     Called by *egterg:
     h_psi        :     45.51s CPU     47.15s WALL (    9089 calls)
     s_psi        :      1.79s CPU      1.85s WALL (    9089 calls)
     g_psi        :      0.17s CPU      0.17s WALL (    6680 calls)
     cdiaghg      :     15.21s CPU     17.28s WALL (    8924 calls)
     cegterg:over :      2.88s CPU      2.96s WALL (    6680 calls)
     cegterg:upda :      2.00s CPU      2.05s WALL (    6680 calls)
     cegterg:last :      0.95s CPU      0.96s WALL (    2544 calls)
     cdiaghg:chol :      1.03s CPU      1.87s WALL (    8924 calls)
     cdiaghg:inve :      0.23s CPU      0.32s WALL (    8924 calls)
     cdiaghg:para :      1.49s CPU      1.52s WALL (   17848 calls)

     Called by h_psi:
     h_psi:pot    :     45.25s CPU     46.88s WALL (    9089 calls)
     h_psi:calbec :      2.49s CPU      2.79s WALL (    9089 calls)
     vloc_psi     :     40.62s CPU     41.89s WALL (    9089 calls)
     add_vuspsi   :      2.08s CPU      2.15s WALL (    9089 calls)

     General routines
     calbec       :      3.53s CPU      3.86s WALL (   12191 calls)
     fft          :      1.60s CPU      2.91s WALL (    3276 calls)
     ffts         :      0.09s CPU      0.09s WALL (     445 calls)
     fftw         :     45.33s CPU     46.74s WALL (  450357 calls)
     interpolate  :      0.17s CPU      0.17s WALL (     228 calls)
 
     Parallel routines
     fft_scatt_xy :      7.50s CPU      7.72s WALL (  454078 calls)
     fft_scatt_yz :     12.91s CPU     13.33s WALL (  454078 calls)
 
     PWSCF        :   1m59.94s CPU   2m 7.76s WALL

 
   This run was terminated on:   9:47:20  20Nov2023            

=------------------------------------------------------------------------------=
   JOB DONE.
=------------------------------------------------------------------------------=
